Program Version,EnergyPlus, Version 9.0.1-bb7ca4f0da, YMD=2018.11.12 18:36
1,5,Environment Title[],Latitude[deg],Longitude[deg],Time Zone[],Elevation[m]
2,8,Day of Simulation[],Month[],Day of Month[],DST Indicator[1=yes 0=no],Hour[],StartMinute[],EndMinute[],DayType
3,5,Cumulative Day of Simulation[],Month[],Day of Month[],DST Indicator[1=yes 0=no],DayType  ! When Daily Report Variables Requested
4,2,Cumulative Days of Simulation[],Month[]  ! When Monthly Report Variables Requested
5,1,Cumulative Days of Simulation[] ! When Run Period Report Variables Requested
6,1,Calendar Year of Simulation[] ! When Annual Report Variables Requested
9,1,BASEMENT,Zone Outdoor Air Drybulb Temperature [C] !Each Call
10,1,CORE_BOTTOM,Zone Outdoor Air Drybulb Temperature [C] !Each Call
11,1,CORE_MID,Zone Outdoor Air Drybulb Temperature [C] !Each Call
12,1,CORE_TOP,Zone Outdoor Air Drybulb Temperature [C] !Each Call
13,1,PERIMETER_BOT_ZN_3,Zone Outdoor Air Drybulb Temperature [C] !Each Call
14,1,PERIMETER_BOT_ZN_2,Zone Outdoor Air Drybulb Temperature [C] !Each Call
15,1,PERIMETER_BOT_ZN_1,Zone Outdoor Air Drybulb Temperature [C] !Each Call
16,1,PERIMETER_BOT_ZN_4,Zone Outdoor Air Drybulb Temperature [C] !Each Call
17,1,PERIMETER_MID_ZN_3,Zone Outdoor Air Drybulb Temperature [C] !Each Call
18,1,PERIMETER_MID_ZN_2,Zone Outdoor Air Drybulb Temperature [C] !Each Call
19,1,PERIMETER_MID_ZN_1,Zone Outdoor Air Drybulb Temperature [C] !Each Call
20,1,PERIMETER_MID_ZN_4,Zone Outdoor Air Drybulb Temperature [C] !Each Call
21,1,PERIMETER_TOP_ZN_3,Zone Outdoor Air Drybulb Temperature [C] !Each Call
22,1,PERIMETER_TOP_ZN_2,Zone Outdoor Air Drybulb Temperature [C] !Each Call
23,1,PERIMETER_TOP_ZN_1,Zone Outdoor Air Drybulb Temperature [C] !Each Call
24,1,PERIMETER_TOP_ZN_4,Zone Outdoor Air Drybulb Temperature [C] !Each Call
25,1,GROUNDFLOOR_PLENUM,Zone Outdoor Air Drybulb Temperature [C] !Each Call
26,1,MIDFLOOR_PLENUM,Zone Outdoor Air Drybulb Temperature [C] !Each Call
27,1,TOPFLOOR_PLENUM,Zone Outdoor Air Drybulb Temperature [C] !Each Call
1081,1,BASEMENT,Zone Mean Air Temperature [C] !Each Call
1082,1,BASEMENT,Zone Air Heat Balance Internal Convective Heat Gain Rate [W] !Hourly
1083,1,BASEMENT,Zone Air Heat Balance Surface Convection Rate [W] !Hourly
1084,1,BASEMENT,Zone Air Heat Balance Interzone Air Transfer Rate [W] !Hourly
1085,1,BASEMENT,Zone Air Heat Balance Outdoor Air Transfer Rate [W] !Hourly
1086,1,BASEMENT,Zone Air Heat Balance System Air Transfer Rate [W] !Hourly
1087,1,CORE_BOTTOM,Zone Mean Air Temperature [C] !Each Call
1088,1,CORE_BOTTOM,Zone Air Heat Balance Internal Convective Heat Gain Rate [W] !Hourly
1089,1,CORE_BOTTOM,Zone Air Heat Balance Surface Convection Rate [W] !Hourly
1090,1,CORE_BOTTOM,Zone Air Heat Balance Interzone Air Transfer Rate [W] !Hourly
1091,1,CORE_BOTTOM,Zone Air Heat Balance Outdoor Air Transfer Rate [W] !Hourly
1092,1,CORE_BOTTOM,Zone Air Heat Balance System Air Transfer Rate [W] !Hourly
1093,1,CORE_MID,Zone Mean Air Temperature [C] !Each Call
1094,1,CORE_MID,Zone Air Heat Balance Internal Convective Heat Gain Rate [W] !Hourly
1095,1,CORE_MID,Zone Air Heat Balance Surface Convection Rate [W] !Hourly
1096,1,CORE_MID,Zone Air Heat Balance Interzone Air Transfer Rate [W] !Hourly
1097,1,CORE_MID,Zone Air Heat Balance Outdoor Air Transfer Rate [W] !Hourly
1098,1,CORE_MID,Zone Air Heat Balance System Air Transfer Rate [W] !Hourly
1099,1,CORE_TOP,Zone Mean Air Temperature [C] !Each Call
1100,1,CORE_TOP,Zone Air Heat Balance Internal Convective Heat Gain Rate [W] !Hourly
1101,1,CORE_TOP,Zone Air Heat Balance Surface Convection Rate [W] !Hourly
1102,1,CORE_TOP,Zone Air Heat Balance Interzone Air Transfer Rate [W] !Hourly
1103,1,CORE_TOP,Zone Air Heat Balance Outdoor Air Transfer Rate [W] !Hourly
1104,1,CORE_TOP,Zone Air Heat Balance System Air Transfer Rate [W] !Hourly
1105,1,PERIMETER_BOT_ZN_3,Zone Mean Air Temperature [C] !Each Call
1106,1,PERIMETER_BOT_ZN_3,Zone Air Heat Balance Internal Convective Heat Gain Rate [W] !Hourly
1107,1,PERIMETER_BOT_ZN_3,Zone Air Heat Balance Surface Convection Rate [W] !Hourly
1108,1,PERIMETER_BOT_ZN_3,Zone Air Heat Balance Interzone Air Transfer Rate [W] !Hourly
1109,1,PERIMETER_BOT_ZN_3,Zone Air Heat Balance Outdoor Air Transfer Rate [W] !Hourly
1110,1,PERIMETER_BOT_ZN_3,Zone Air Heat Balance System Air Transfer Rate [W] !Hourly
1111,1,PERIMETER_BOT_ZN_2,Zone Mean Air Temperature [C] !Each Call
1112,1,PERIMETER_BOT_ZN_2,Zone Air Heat Balance Internal Convective Heat Gain Rate [W] !Hourly
1113,1,PERIMETER_BOT_ZN_2,Zone Air Heat Balance Surface Convection Rate [W] !Hourly
1114,1,PERIMETER_BOT_ZN_2,Zone Air Heat Balance Interzone Air Transfer Rate [W] !Hourly
1115,1,PERIMETER_BOT_ZN_2,Zone Air Heat Balance Outdoor Air Transfer Rate [W] !Hourly
1116,1,PERIMETER_BOT_ZN_2,Zone Air Heat Balance System Air Transfer Rate [W] !Hourly
1117,1,PERIMETER_BOT_ZN_1,Zone Mean Air Temperature [C] !Each Call
1118,1,PERIMETER_BOT_ZN_1,Zone Air Heat Balance Internal Convective Heat Gain Rate [W] !Hourly
1119,1,PERIMETER_BOT_ZN_1,Zone Air Heat Balance Surface Convection Rate [W] !Hourly
1120,1,PERIMETER_BOT_ZN_1,Zone Air Heat Balance Interzone Air Transfer Rate [W] !Hourly
1121,1,PERIMETER_BOT_ZN_1,Zone Air Heat Balance Outdoor Air Transfer Rate [W] !Hourly
1122,1,PERIMETER_BOT_ZN_1,Zone Air Heat Balance System Air Transfer Rate [W] !Hourly
1123,1,PERIMETER_BOT_ZN_4,Zone Mean Air Temperature [C] !Each Call
1124,1,PERIMETER_BOT_ZN_4,Zone Air Heat Balance Internal Convective Heat Gain Rate [W] !Hourly
1125,1,PERIMETER_BOT_ZN_4,Zone Air Heat Balance Surface Convection Rate [W] !Hourly
1126,1,PERIMETER_BOT_ZN_4,Zone Air Heat Balance Interzone Air Transfer Rate [W] !Hourly
1127,1,PERIMETER_BOT_ZN_4,Zone Air Heat Balance Outdoor Air Transfer Rate [W] !Hourly
1128,1,PERIMETER_BOT_ZN_4,Zone Air Heat Balance System Air Transfer Rate [W] !Hourly
1129,1,PERIMETER_MID_ZN_3,Zone Mean Air Temperature [C] !Each Call
1130,1,PERIMETER_MID_ZN_3,Zone Air Heat Balance Internal Convective Heat Gain Rate [W] !Hourly
1131,1,PERIMETER_MID_ZN_3,Zone Air Heat Balance Surface Convection Rate [W] !Hourly
1132,1,PERIMETER_MID_ZN_3,Zone Air Heat Balance Interzone Air Transfer Rate [W] !Hourly
1133,1,PERIMETER_MID_ZN_3,Zone Air Heat Balance Outdoor Air Transfer Rate [W] !Hourly
1134,1,PERIMETER_MID_ZN_3,Zone Air Heat Balance System Air Transfer Rate [W] !Hourly
1135,1,PERIMETER_MID_ZN_2,Zone Mean Air Temperature [C] !Each Call
1136,1,PERIMETER_MID_ZN_2,Zone Air Heat Balance Internal Convective Heat Gain Rate [W] !Hourly
1137,1,PERIMETER_MID_ZN_2,Zone Air Heat Balance Surface Convection Rate [W] !Hourly
1138,1,PERIMETER_MID_ZN_2,Zone Air Heat Balance Interzone Air Transfer Rate [W] !Hourly
1139,1,PERIMETER_MID_ZN_2,Zone Air Heat Balance Outdoor Air Transfer Rate [W] !Hourly
1140,1,PERIMETER_MID_ZN_2,Zone Air Heat Balance System Air Transfer Rate [W] !Hourly
1141,1,PERIMETER_MID_ZN_1,Zone Mean Air Temperature [C] !Each Call
1142,1,PERIMETER_MID_ZN_1,Zone Air Heat Balance Internal Convective Heat Gain Rate [W] !Hourly
1143,1,PERIMETER_MID_ZN_1,Zone Air Heat Balance Surface Convection Rate [W] !Hourly
1144,1,PERIMETER_MID_ZN_1,Zone Air Heat Balance Interzone Air Transfer Rate [W] !Hourly
1145,1,PERIMETER_MID_ZN_1,Zone Air Heat Balance Outdoor Air Transfer Rate [W] !Hourly
1146,1,PERIMETER_MID_ZN_1,Zone Air Heat Balance System Air Transfer Rate [W] !Hourly
1147,1,PERIMETER_MID_ZN_4,Zone Mean Air Temperature [C] !Each Call
1148,1,PERIMETER_MID_ZN_4,Zone Air Heat Balance Internal Convective Heat Gain Rate [W] !Hourly
1149,1,PERIMETER_MID_ZN_4,Zone Air Heat Balance Surface Convection Rate [W] !Hourly
1150,1,PERIMETER_MID_ZN_4,Zone Air Heat Balance Interzone Air Transfer Rate [W] !Hourly
1151,1,PERIMETER_MID_ZN_4,Zone Air Heat Balance Outdoor Air Transfer Rate [W] !Hourly
1152,1,PERIMETER_MID_ZN_4,Zone Air Heat Balance System Air Transfer Rate [W] !Hourly
1153,1,PERIMETER_TOP_ZN_3,Zone Mean Air Temperature [C] !Each Call
1154,1,PERIMETER_TOP_ZN_3,Zone Air Heat Balance Internal Convective Heat Gain Rate [W] !Hourly
1155,1,PERIMETER_TOP_ZN_3,Zone Air Heat Balance Surface Convection Rate [W] !Hourly
1156,1,PERIMETER_TOP_ZN_3,Zone Air Heat Balance Interzone Air Transfer Rate [W] !Hourly
1157,1,PERIMETER_TOP_ZN_3,Zone Air Heat Balance Outdoor Air Transfer Rate [W] !Hourly
1158,1,PERIMETER_TOP_ZN_3,Zone Air Heat Balance System Air Transfer Rate [W] !Hourly
1159,1,PERIMETER_TOP_ZN_2,Zone Mean Air Temperature [C] !Each Call
1160,1,PERIMETER_TOP_ZN_2,Zone Air Heat Balance Internal Convective Heat Gain Rate [W] !Hourly
1161,1,PERIMETER_TOP_ZN_2,Zone Air Heat Balance Surface Convection Rate [W] !Hourly
1162,1,PERIMETER_TOP_ZN_2,Zone Air Heat Balance Interzone Air Transfer Rate [W] !Hourly
1163,1,PERIMETER_TOP_ZN_2,Zone Air Heat Balance Outdoor Air Transfer Rate [W] !Hourly
1164,1,PERIMETER_TOP_ZN_2,Zone Air Heat Balance System Air Transfer Rate [W] !Hourly
1165,1,PERIMETER_TOP_ZN_1,Zone Mean Air Temperature [C] !Each Call
1166,1,PERIMETER_TOP_ZN_1,Zone Air Heat Balance Internal Convective Heat Gain Rate [W] !Hourly
1167,1,PERIMETER_TOP_ZN_1,Zone Air Heat Balance Surface Convection Rate [W] !Hourly
1168,1,PERIMETER_TOP_ZN_1,Zone Air Heat Balance Interzone Air Transfer Rate [W] !Hourly
1169,1,PERIMETER_TOP_ZN_1,Zone Air Heat Balance Outdoor Air Transfer Rate [W] !Hourly
1170,1,PERIMETER_TOP_ZN_1,Zone Air Heat Balance System Air Transfer Rate [W] !Hourly
1171,1,PERIMETER_TOP_ZN_4,Zone Mean Air Temperature [C] !Each Call
1172,1,PERIMETER_TOP_ZN_4,Zone Air Heat Balance Internal Convective Heat Gain Rate [W] !Hourly
1173,1,PERIMETER_TOP_ZN_4,Zone Air Heat Balance Surface Convection Rate [W] !Hourly
1174,1,PERIMETER_TOP_ZN_4,Zone Air Heat Balance Interzone Air Transfer Rate [W] !Hourly
1175,1,PERIMETER_TOP_ZN_4,Zone Air Heat Balance Outdoor Air Transfer Rate [W] !Hourly
1176,1,PERIMETER_TOP_ZN_4,Zone Air Heat Balance System Air Transfer Rate [W] !Hourly
1177,1,GROUNDFLOOR_PLENUM,Zone Mean Air Temperature [C] !Each Call
1178,1,GROUNDFLOOR_PLENUM,Zone Air Heat Balance Internal Convective Heat Gain Rate [W] !Hourly
1179,1,GROUNDFLOOR_PLENUM,Zone Air Heat Balance Surface Convection Rate [W] !Hourly
1180,1,GROUNDFLOOR_PLENUM,Zone Air Heat Balance Interzone Air Transfer Rate [W] !Hourly
1181,1,GROUNDFLOOR_PLENUM,Zone Air Heat Balance Outdoor Air Transfer Rate [W] !Hourly
1182,1,GROUNDFLOOR_PLENUM,Zone Air Heat Balance System Air Transfer Rate [W] !Hourly
1183,1,MIDFLOOR_PLENUM,Zone Mean Air Temperature [C] !Each Call
1184,1,MIDFLOOR_PLENUM,Zone Air Heat Balance Internal Convective Heat Gain Rate [W] !Hourly
1185,1,MIDFLOOR_PLENUM,Zone Air Heat Balance Surface Convection Rate [W] !Hourly
1186,1,MIDFLOOR_PLENUM,Zone Air Heat Balance Interzone Air Transfer Rate [W] !Hourly
1187,1,MIDFLOOR_PLENUM,Zone Air Heat Balance Outdoor Air Transfer Rate [W] !Hourly
1188,1,MIDFLOOR_PLENUM,Zone Air Heat Balance System Air Transfer Rate [W] !Hourly
1189,1,TOPFLOOR_PLENUM,Zone Mean Air Temperature [C] !Each Call
1190,1,TOPFLOOR_PLENUM,Zone Air Heat Balance Internal Convective Heat Gain Rate [W] !Hourly
1191,1,TOPFLOOR_PLENUM,Zone Air Heat Balance Surface Convection Rate [W] !Hourly
1192,1,TOPFLOOR_PLENUM,Zone Air Heat Balance Interzone Air Transfer Rate [W] !Hourly
1193,1,TOPFLOOR_PLENUM,Zone Air Heat Balance Outdoor Air Transfer Rate [W] !Hourly
1194,1,TOPFLOOR_PLENUM,Zone Air Heat Balance System Air Transfer Rate [W] !Hourly
2367,1,CUSTOM_ZONE_CLGT_SETPOINT,Schedule Value [] !Each Call
2770,1,PERIMETER_TOP_ZN_3 VAV BOX OUTLET NODE NAME,System Node Temperature [C] !Each Call
2771,1,PERIMETER_TOP_ZN_3 VAV BOX OUTLET NODE NAME,System Node Mass Flow Rate [kg/s] !Each Call
129,1,Electricity:Facility [J] !Hourly
141,1,Electricity:Building [J] !Hourly
2199,1,ElectricityNet:Facility [J] !Hourly
2514,1,Electricity:HVAC [J] !Hourly
934,1,Gas:Facility [J] !Hourly
131,9,Electricity:Facility [J] !Monthly [Value,Min,Day,Hour,Minute,Max,Day,Hour,Minute]
936,9,Gas:Facility [J] !Monthly [Value,Min,Day,Hour,Minute,Max,Day,Hour,Minute]
2809,9,CO2:Facility [kg] !Monthly [Value,Min,Day,Hour,Minute,Max,Day,Hour,Minute]
2834,9,CO:Facility [kg] !Monthly [Value,Min,Day,Hour,Minute,Max,Day,Hour,Minute]
2859,9,CH4:Facility [kg] !Monthly [Value,Min,Day,Hour,Minute,Max,Day,Hour,Minute]
2884,9,NOx:Facility [kg] !Monthly [Value,Min,Day,Hour,Minute,Max,Day,Hour,Minute]
2909,9,N2O:Facility [kg] !Monthly [Value,Min,Day,Hour,Minute,Max,Day,Hour,Minute]
2934,9,SO2:Facility [kg] !Monthly [Value,Min,Day,Hour,Minute,Max,Day,Hour,Minute]
2959,9,PM:Facility [kg] !Monthly [Value,Min,Day,Hour,Minute,Max,Day,Hour,Minute]
2984,9,PM10:Facility [kg] !Monthly [Value,Min,Day,Hour,Minute,Max,Day,Hour,Minute]
3009,9,PM2.5:Facility [kg] !Monthly [Value,Min,Day,Hour,Minute,Max,Day,Hour,Minute]
3034,9,NH3:Facility [kg] !Monthly [Value,Min,Day,Hour,Minute,Max,Day,Hour,Minute]
3059,9,NMVOC:Facility [kg] !Monthly [Value,Min,Day,Hour,Minute,Max,Day,Hour,Minute]
3084,9,Hg:Facility [kg] !Monthly [Value,Min,Day,Hour,Minute,Max,Day,Hour,Minute]
3109,9,Pb:Facility [kg] !Monthly [Value,Min,Day,Hour,Minute,Max,Day,Hour,Minute]
3134,9,WaterEnvironmentalFactors:Facility [L] !Monthly [Value,Min,Day,Hour,Minute,Max,Day,Hour,Minute]
3159,9,Nuclear High:Facility [kg] !Monthly [Value,Min,Day,Hour,Minute,Max,Day,Hour,Minute]
3184,9,Nuclear Low:Facility [m3] !Monthly [Value,Min,Day,Hour,Minute,Max,Day,Hour,Minute]
3898,9,Carbon Equivalent:Facility [kg] !Monthly [Value,Min,Day,Hour,Minute,Max,Day,Hour,Minute]
End of Data Dictionary
1,CHICAGO ANN HTG 99.6% CONDNS DB,  25.82, -80.30,  -5.00,  11.00
2,1, 1,21, 0, 1, 0.00,10.00,WinterDesignDay
2770,16.797683763953299
2771,4.6815374852839108
9,-20.590250002300978
10,-20.599168000375948
11,-20.727971543200284
12,-20.882534734455477
13,-20.599168000375948
14,-20.599168000375948
15,-20.599168000375948
16,-20.599168000375948
17,-20.727971543200284
18,-20.727971543200284
19,-20.727971543200284
20,-20.727971543200284
21,-20.882534734455477
22,-20.882534734455477
23,-20.882534734455477
24,-20.882534734455477
25,-20.612048390799548
26,-20.740851853310315
27,-20.89541494819021
1081,16.811699234491294
1087,12.99768121764855
1093,11.23591952943094
1099,12.68975106476632
1105,12.374482353643947
1111,12.305427660113086
1117,12.29382837949867
1123,12.301790554171824
1129,10.91091969900168
1135,11.231926235028036
1141,10.73974513386314
1147,11.241677602705945
1153,12.05833474747891
1159,11.792618686046
1165,10.152608264952498
1171,11.96788397000562
1177,10.391373943272534
1183,8.148031558389821
1189,0.10265620192161744
2367,30.0
2,1, 1,21, 0, 1,10.00,20.00,WinterDesignDay
2770,16.797687523420284
2771,4.6815374852839108
9,-20.590250002300978
10,-20.599168000375948
11,-20.727971543200284
12,-20.882534734455477
13,-20.599168000375948
14,-20.599168000375948
15,-20.599168000375948
16,-20.599168000375948
17,-20.727971543200284
18,-20.727971543200284
19,-20.727971543200284
20,-20.727971543200284
21,-20.882534734455477
22,-20.882534734455477
23,-20.882534734455477
24,-20.882534734455477
25,-20.612048390799548
26,-20.740851853310315
27,-20.89541494819021
1081,16.814132660966789
1087,12.999463431609007
1093,11.238819473007326
1099,12.673828353621437
1105,12.374032005162068
1111,12.305895044807257
1117,12.29325657734504
1123,12.302307057487648
1129,10.910559800132614
1135,11.233119296691604
1141,10.739150968606028
1147,11.242965953602825
1153,12.054465044359123
1159,11.78178103949568
1165,10.139241980813157
1171,11.957645717674957
1177,10.392022929133843
1183,8.149206904618583
1189,0.08755456705524467
2367,30.0
2,1, 1,21, 0, 1,20.00,30.00,WinterDesignDay
2770,16.797691071174424
2771,4.6815374852839108
9,-20.590250002300978
10,-20.599168000375948
11,-20.727971543200284
12,-20.882534734455477
13,-20.599168000375948
14,-20.599168000375948
15,-20.599168000375948
16,-20.599168000375948
17,-20.727971543200284
18,-20.727971543200284
19,-20.727971543200284
20,-20.727971543200284
21,-20.882534734455477
22,-20.882534734455477
23,-20.882534734455477
24,-20.882534734455477
25,-20.612048390799548
26,-20.740851853310315
27,-20.89541494819021
1081,16.816543824614955
1087,13.001233309016853
1093,11.241688956406597
1099,12.658088353814858
1105,12.373606626794882
1111,12.306366279348996
1117,12.292711983053094
1123,12.302826238436062
1129,10.91021796262953
1135,11.234297936163351
1141,10.738578968344326
1147,11.244237674235834
1153,12.050650458806367
1159,11.771089187258179
1165,10.126041025680984
1171,11.947547043031286
1177,10.392676765006652
1183,8.150384361933933
1189,0.07269243277088118
2367,30.0
2,1, 1,21, 0, 1,30.00,40.00,WinterDesignDay
2770,16.79769442273508
2771,4.6815374852839108
9,-20.590250002300978
10,-20.599168000375948
11,-20.727971543200284
12,-20.882534734455477
13,-20.599168000375948
14,-20.599168000375948
15,-20.599168000375948
16,-20.599168000375948
17,-20.727971543200284
18,-20.727971543200284
19,-20.727971543200284
20,-20.727971543200284
21,-20.882534734455477
22,-20.882534734455477
23,-20.882534734455477
24,-20.882534734455477
25,-20.612048390799548
26,-20.740851853310315
27,-20.89541494819021
1081,16.818933199846126
1087,13.002991072427939
1093,11.244528632801306
1099,12.642526890913623
1105,12.373205562433688
1111,12.306841294808966
1117,12.292193879863076
1123,12.30334806262568
1129,10.909893963963662
1135,11.235462726963224
1141,10.738028816785905
1147,11.245493394863109
1153,12.046889263188986
1159,11.760538769779292
1165,10.113000541874204
1171,11.937583763000351
1177,10.393335266902064
1183,8.151563838320705
1189,0.058060223429540588
2367,30.0
2,1, 1,21, 0, 1,40.00,50.00,WinterDesignDay
2770,16.797697591583395
2771,4.6815374852839108
9,-20.590250002300978
10,-20.599168000375948
11,-20.727971543200284
12,-20.882534734455477
13,-20.599168000375948
14,-20.599168000375948
15,-20.599168000375948
16,-20.599168000375948
17,-20.727971543200284
18,-20.727971543200284
19,-20.727971543200284
20,-20.727971543200284
21,-20.882534734455477
22,-20.882534734455477
23,-20.882534734455477
24,-20.882534734455477
25,-20.612048390799548
26,-20.740851853310315
27,-20.89541494819021
1081,16.821301221056325
1087,13.004736831104454
1093,11.24733902550812
1099,12.627140148107099
1105,12.37282818763577
1111,12.30732000677137
1117,12.291701587872322
1123,12.30387247729721
1129,10.909587557243615
1135,11.236614175997037
1141,10.737500179740906
1147,11.24673367612201
1153,12.04317988085378
1159,11.750125821136278
1165,10.10011613580873
1171,11.92775206794513
1177,10.393998271874907
1183,8.152745267671913
1189,0.04364923537435895
2367,30.0
2,1, 1,21, 0, 1,50.00,60.00,WinterDesignDay
2770,16.797700589667227
2771,4.6815374852839108
9,-20.590250002300978
10,-20.599168000375948
11,-20.727971543200284
12,-20.882534734455477
13,-20.599168000375948
14,-20.599168000375948
15,-20.599168000375948
16,-20.599168000375948
17,-20.727971543200284
18,-20.727971543200284
19,-20.727971543200284
20,-20.727971543200284
21,-20.882534734455477
22,-20.882534734455477
23,-20.882534734455477
24,-20.882534734455477
25,-20.612048390799548
26,-20.740851853310315
27,-20.89541494819021
1081,16.823648287446919
1087,13.00647064039075
1093,11.25012063828699
1099,12.61192462652991
1105,12.372473907491198
1111,12.30780232049694
1117,12.291234460949325
1123,12.304399416972553
1129,10.90929847728872
1135,11.237752735130395
1141,10.73699271014577
1147,11.247959021060803
1153,12.039520866872369
1159,11.739846715562655
1165,10.087383813321983
1171,11.91804847161438
1177,10.394665659665975
1183,8.153928614408715
1189,0.029451505127352098
2367,30.0
2,1, 1,21, 0, 1, 0.00,60.00,WinterDesignDay
1082,0.0
1083,41.412639399869288
1084,0.0
1085,0.0
1086,0.0
1088,33.51745360609733
1089,-1.3105898142801778
1090,0.0
1091,0.0
1092,-7.526667525688686
1094,35.16632215221977
1095,-14573.483235824153
1096,0.0
1097,0.0
1098,145784.67382061148
1100,33.81378040448176
1101,-41149.26684171068
1102,0.0
1103,-35602.18030106822
1104,76498.7589739689
1106,0.0
1107,-7257.605355607349
1108,0.0
1109,-2703.769530718536
1110,9960.690207261629
1112,0.0
1113,-5027.258836200652
1114,0.0
1115,-1807.8991576534718
1116,6835.701817422723
1118,0.0
1119,-7363.824228528857
1120,0.0
1121,-2697.13156760232
1122,10060.067027729188
1124,0.0
1125,-5015.737213585687
1126,0.0
1127,-1807.705865450084
1128,6824.039502219969
1130,0.0
1131,-10549.585730352088
1132,0.0
1133,-2595.659194122333
1134,131446.96983076164
1136,0.0
1137,-7373.274541792819
1138,0.0
1139,-1756.9883507992916
1140,91315.90232539173
1142,0.0
1143,-10423.370257321274
1144,0.0
1145,-2581.56868936658
1146,130039.9406262635
1148,0.0
1149,-7509.729806095897
1150,0.0
1151,-1757.5370789553179
1152,92686.96955031238
1154,0.0
1155,-15340.518582488416
1156,0.0
1157,-7032.519437760379
1158,22366.457133275613
1160,0.0
1161,-9518.818361412797
1162,0.0
1163,-4561.283094015945
1164,14068.21870713187
1166,0.0
1167,-12390.161589234622
1168,0.0
1169,-6620.556979953125
1170,18987.804197172136
1172,0.0
1173,-9856.621610849694
1174,0.0
1175,-4585.975687505274
1176,14431.381592403612
1178,0.0
1179,3604.5960781583614
1180,0.0
1181,-3598.765153002536
1182,0.0
1184,0.0
1185,3365.723207142723
1186,0.0
1187,-3355.1930635150545
1188,0.0
1190,0.0
1191,33604.7661050395
1192,0.0
1193,-33739.38229925639
1194,0.0
129,443906626.1827339
141,0.0
934,3235812944.099864
2199,443906626.1827339
2514,178260642.65773223
2,1, 1,21, 0, 2, 0.00,10.00,WinterDesignDay
2770,16.79770342772767
2771,4.6815374852839108
9,-20.590250002300978
10,-20.599168000375948
11,-20.727971543200284
12,-20.882534734455477
13,-20.599168000375948
14,-20.599168000375948
15,-20.599168000375948
16,-20.599168000375948
17,-20.727971543200284
18,-20.727971543200284
19,-20.727971543200284
20,-20.727971543200284
21,-20.882534734455477
22,-20.882534734455477
23,-20.882534734455477
24,-20.882534734455477
25,-20.612048390799548
26,-20.740851853310315
27,-20.89541494819021
1081,16.825974767028485
1087,13.008192560532072
1093,11.252873978916267
1099,12.596877080735743
1105,12.372142153424863
1111,12.308288134278222
1117,12.290791882845454
1123,12.304928807214694
1129,10.909026444852337
1135,11.238878810602668
1141,10.736506051373742
1147,11.249169884916972
1153,12.035910890505058
1159,11.729698121912119
1165,10.074799924218177
1171,11.908469768294518
1177,10.395337336909864
1183,8.155113849990747
1189,0.01545971911444496
2367,30.0
2,1, 1,21, 0, 2,10.00,20.00,WinterDesignDay
2770,16.79770611551991
2771,4.6815374852839108
9,-20.590250002300978
10,-20.599168000375948
11,-20.727971543200284
12,-20.882534734455477
13,-20.599168000375948
14,-20.599168000375948
15,-20.599168000375948
16,-20.599168000375948
17,-20.727971543200284
18,-20.727971543200284
19,-20.727971543200284
20,-20.727971543200284
21,-20.882534734455477
22,-20.882534734455477
23,-20.882534734455477
24,-20.882534734455477
25,-20.612048390799548
26,-20.740851853310315
27,-20.89541494819021
1081,16.828281000062238
1087,13.009902673283419
1093,11.255599546173459
1099,12.58199447567674
1105,12.371832380095576
1111,12.308777341865169
1117,12.290373263513296
1123,12.305460567371734
1129,10.908771170487578
1135,11.239992770931256
1141,10.73603984035476
1147,11.250366683282211
1153,12.032348720082887
1159,11.719676964084743
1165,10.062361114716227
1171,11.899012995301407
1177,10.3960132185707
1183,8.156300937706819
1189,0.0016671465116833279
2367,30.0
2,1, 1,21, 0, 2,20.00,30.00,WinterDesignDay
2770,16.797708661970373
2771,4.6815374852839108
9,-20.590250002300978
10,-20.599168000375948
11,-20.727971543200284
12,-20.882534734455477
13,-20.599168000375948
14,-20.599168000375948
15,-20.599168000375948
16,-20.599168000375948
17,-20.727971543200284
18,-20.727971543200284
19,-20.727971543200284
20,-20.727971543200284
21,-20.882534734455477
22,-20.882534734455477
23,-20.882534734455477
24,-20.882534734455477
25,-20.612048390799548
26,-20.740851853310315
27,-20.89541494819021
1081,16.830567301969479
1087,13.011601071476683
1093,11.25829781669589
1099,12.567273958094212
1105,12.371544062811403
1111,12.309269834254789
1117,12.289978036030842
1123,12.305994612617483
1129,10.90853235788949
1135,11.24109495323786
1141,10.735593710345848
1147,11.251549798618992
1153,12.028833210318309
1159,11.709780387022312
1165,10.050064287017526
1171,11.889675400660533
1177,10.396693220227175
1183,8.157489831159193
1189,-0.011932421545215864
2367,30.0
2,1, 1,21, 0, 2,30.00,40.00,WinterDesignDay
2770,16.797711075293937
2771,4.6815374852839108
9,-20.590250002300978
10,-20.599168000375948
11,-20.727971543200284
12,-20.882534734455477
13,-20.599168000375948
14,-20.599168000375948
15,-20.599168000375948
16,-20.599168000375948
17,-20.727971543200284
18,-20.727971543200284
19,-20.727971543200284
20,-20.727971543200284
21,-20.882534734455477
22,-20.882534734455477
23,-20.882534734455477
24,-20.882534734455477
25,-20.612048390799548
26,-20.740851853310315
27,-20.89541494819021
1081,16.83283396569973
1087,13.01328785092128
1093,11.260969246037988
1099,12.552712836991205
1105,12.37127669535892
1111,12.309765500954633
1117,12.28960565403665
1123,12.306530855417707
1129,10.90830970647656
1135,11.242185668182199
1141,10.73516729307694
1147,11.252719585352052
1153,12.02536329163076
1159,11.700005727883444
1165,10.037906565113307
1171,11.88045441572841
1177,10.397377258172693
1183,8.158680478202614
1189,-0.02534472931543622
2367,30.0
2,1, 1,21, 0, 2,40.00,50.00,WinterDesignDay
2770,16.79771336308664
2771,4.6815374852839108
9,-20.590250002300978
10,-20.599168000375948
11,-20.727971543200284
12,-20.882534734455477
13,-20.599168000375948
14,-20.599168000375948
15,-20.599168000375948
16,-20.599168000375948
17,-20.727971543200284
18,-20.727971543200284
19,-20.727971543200284
20,-20.727971543200284
21,-20.882534734455477
22,-20.882534734455477
23,-20.882534734455477
24,-20.882534734455477
25,-20.612048390799548
26,-20.740851853310315
27,-20.89541494819021
1081,16.83508126357952
1087,13.014963106820577
1093,11.2636142725277
1099,12.538308564217914
1105,12.371029788136625
1111,12.310264230885013
1117,12.289255589554001
1123,12.307069206600393
1129,10.908102913344696
1135,11.24326520389852
1141,10.734760220360063
1147,11.253876373941754
1153,12.021937961061058
1159,11.690350491680542
1165,10.025885265833438
1171,11.871347632089965
1177,10.398065251163697
1183,8.159872823986252
1189,-0.038575107925570169
2367,30.0
2,1, 1,21, 0, 2,50.00,60.00,WinterDesignDay
2770,16.7977155324025
2771,4.6815374852839108
9,-20.590250002300978
10,-20.599168000375948
11,-20.727971543200284
12,-20.882534734455477
13,-20.599168000375948
14,-20.599168000375948
15,-20.599168000375948
16,-20.599168000375948
17,-20.727971543200284
18,-20.727971543200284
19,-20.727971543200284
20,-20.727971543200284
21,-20.882534734455477
22,-20.882534734455477
23,-20.882534734455477
24,-20.882534734455477
25,-20.612048390799548
26,-20.740851853310315
27,-20.89541494819021
1081,16.83730944867994
1087,13.016626935611559
1093,11.266233321842427
1099,12.52405871848252
1105,12.370802866572723
1111,12.310765913071437
1117,12.288927331164294
1123,12.307609576187799
1129,10.907911674821412
1135,11.244333829243095
1141,10.734372125366765
1147,11.255020474248232
1153,12.018556274483723
1159,11.680812330619725
1165,10.013997874248857
1171,11.862352781982472
1177,10.398757120998729
1183,8.161066811927281
1189,-0.05162851995879681
2367,30.0
2,1, 1,21, 0, 2, 0.00,60.00,WinterDesignDay
1082,0.0
1083,39.28034641129941
1084,0.0
1085,0.0
1086,0.0
1088,33.50764698508884
1089,34.78956936341842
1090,0.0
1091,0.0
1092,-44.61404222417634
1094,35.1505278702883
1095,-14508.69745665484
1096,0.0
1097,0.0
1098,145113.15280893885
1100,33.90027048297228
1101,-41819.17097463777
1102,0.0
1103,-35506.26711937167
1104,77086.70235556945
1106,0.0
1107,-7258.684963840035
1108,0.0
1109,-2703.605520235889
1110,9961.837699848818
1112,0.0
1113,-5025.069734213751
1114,0.0
1115,-1808.059206007035
1116,6833.695211694488
1118,0.0
1119,-7365.259846608103
1120,0.0
1121,-2696.912966466159
1122,10061.536948955008
1124,0.0
1125,-5013.293279940591
1126,0.0
1127,-1807.8803036696282
1128,6821.785444416809
1130,0.0
1131,-10550.631904878095
1132,0.0
1133,-2595.524874535979
1134,131457.84644654426
1136,0.0
1137,-7367.874744472345
1138,0.0
1139,-1757.3601122776866
1140,91264.77490837059
1142,0.0
1143,-10425.17167202151
1144,0.0
1145,-2581.328612519717
1146,130057.70518483012
1148,0.0
1149,-7503.715601967277
1150,0.0
1151,-1757.9368506963365
1152,92629.8442442586
1154,0.0
1155,-15446.733942200264
1156,0.0
1157,-7027.889304888841
1158,22468.55641881662
1160,0.0
1161,-9571.030640076327
1162,0.0
1163,-4552.768405364315
1164,14112.791806911133
1166,0.0
1167,-12451.83799605554
1168,0.0
1169,-6604.420490576794
1170,19034.89591304577
1172,0.0
1173,-9910.792357034597
1174,0.0
1175,-4577.938992406786
1176,14478.35326757002
1178,0.0
1179,3605.290687838104
1180,0.0
1181,-3599.2327336932869
1182,0.0
1184,0.0
1185,3366.6484577729536
1186,0.0
1187,-3356.018825176607
1188,0.0
1190,0.0
1191,33480.666037218594
1192,0.0
1193,-33604.06210579012
1194,0.0
129,443947447.4787792
141,0.0
934,3236194866.213026
2199,443947447.4787792
2514,178260642.65773223
2,1, 1,21, 0, 3, 0.00,10.00,WinterDesignDay
2770,16.79771758981189
2771,4.6815374852839108
9,-20.590250002300978
10,-20.599168000375948
11,-20.727971543200284
12,-20.882534734455477
13,-20.599168000375948
14,-20.599168000375948
15,-20.599168000375948
16,-20.599168000375948
17,-20.727971543200284
18,-20.727971543200284
19,-20.727971543200284
20,-20.727971543200284
21,-20.882534734455477
22,-20.882534734455477
23,-20.882534734455477
24,-20.882534734455477
25,-20.612048390799548
26,-20.740851853310315
27,-20.89541494819021
1081,16.839518755723664
1087,13.01827943349435
1093,11.268826806291223
1099,12.509960988672093
1105,12.370595469810329
1111,12.31127043719921
1117,12.288620382495953
1123,12.308151874066195
1129,10.907735687745456
1135,11.245391796498227
1141,10.734002643683216
1147,11.256152178333555
1153,12.015217339921583
1159,11.671389026525102
1165,10.002242022734615
1171,11.85346772163954
1177,10.399452792067493
1183,8.162262383790218
1189,-0.06450959808490953
2367,30.0
2,1, 1,21, 0, 3,10.00,20.00,WinterDesignDay