Program Version,EnergyPlus, Version 9.1.0-08d2e308bb, YMD=2019.08.08 15:56
1,5,Environment Title[],Latitude[deg],Longitude[deg],Time Zone[],Elevation[m]
2,8,Day of Simulation[],Month[],Day of Month[],DST Indicator[1=yes 0=no],Hour[],StartMinute[],EndMinute[],DayType
3,5,Cumulative Day of Simulation[],Month[],Day of Month[],DST Indicator[1=yes 0=no],DayType  ! When Daily Meters Requested
4,2,Cumulative Days of Simulation[],Month[]  ! When Monthly Meters Requested
5,1,Cumulative Days of Simulation[] ! When Run Period Meters Requested
6,1,Calendar Year of Simulation[] ! When Annual Meters Requested
74,1,Electricity:Facility [J] !Hourly
2054,1,ElectricityNet:Facility [J] !Hourly
843,1,Gas:Facility [J] !Hourly
110,1,InteriorLights:Electricity [J] !Hourly
542,1,InteriorEquipment:Electricity [J] !Hourly
End of Data Dictionary
1,BUFFALO.NIAGARA.INTL.AP_NY_USA ANN HTG 99.6% CONDNS DB,  41.98, -87.92,  -6.00, 201.00
2,1, 1,21, 0, 1, 0.00,60.00,WinterDesignDay
74,90849333.26705088
110,0.0
542,0.0
843,9286423.968949873
2054,90849333.26705089
2,1, 1,21, 0, 2, 0.00,60.00,WinterDesignDay
74,95517810.19674014
110,0.0
542,0.0
843,11484934.109796565
2054,95517810.19674014
2,1, 1,21, 0, 3, 0.00,60.00,WinterDesignDay
74,79886139.5369911
110,0.0
542,0.0
843,11014978.398796399
2054,79886139.53699112
2,1, 1,21, 0, 4, 0.00,60.00,WinterDesignDay
74,123183664.96627319
110,0.0
542,0.0
843,14347836.991253199
2054,123183664.96627319
2,1, 1,21, 0, 5, 0.00,60.00,WinterDesignDay
74,119034836.81377954
110,0.0
542,0.0
843,15088267.00107383
2054,119034836.81377952
2,1, 1,21, 0, 6, 0.00,60.00,WinterDesignDay
74,196438803.56434698
110,0.0
542,0.0
843,11920601.987646178
2054,196438803.5643469
2,1, 1,21, 0, 7, 0.00,60.00,WinterDesignDay
74,514650705.15794447
110,0.0
542,0.0
843,9491342.990006784
2054,514650705.1579444
2,1, 1,21, 0, 8, 0.00,60.00,WinterDesignDay
74,612905177.3727026
110,0.0
542,0.0
843,359952303.35027638
2054,612905177.3727027
2,1, 1,21, 0, 9, 0.00,60.00,WinterDesignDay
74,532012712.6431913
110,0.0
542,0.0
843,356608078.01958528
2054,532012712.6431913
2,1, 1,21, 0,10, 0.00,60.00,WinterDesignDay
74,505732670.1455375
110,0.0
542,0.0
843,355677408.60118177
2054,505732670.1455375
2,1, 1,21, 0,11, 0.00,60.00,WinterDesignDay
74,489916467.2959119
110,0.0
542,0.0
843,355185112.03514817
2054,489916467.2959119
2,1, 1,21, 0,12, 0.00,60.00,WinterDesignDay
74,477661290.1376009
110,0.0
542,0.0
843,354925812.06217768
2054,477661290.1376009
2,1, 1,21, 0,13, 0.00,60.00,WinterDesignDay
74,467572529.8588223
110,0.0
542,0.0
843,354754453.17651006
2054,467572529.8588223
2,1, 1,21, 0,14, 0.00,60.00,WinterDesignDay
74,458763374.3661561
110,0.0
542,0.0
843,354612179.5309626
2054,458763374.3661561
2,1, 1,21, 0,15, 0.00,60.00,WinterDesignDay
74,451110642.1342029
110,0.0
542,0.0
843,354477334.4727025
2054,451110642.1342029
2,1, 1,21, 0,16, 0.00,60.00,WinterDesignDay
74,444282171.3889341
110,0.0
542,0.0
843,358137071.3749069
2054,444282171.3889341
2,1, 1,21, 0,17, 0.00,60.00,WinterDesignDay
74,442667526.06828978
110,0.0
542,0.0
843,354570959.8659781
2054,442667526.06828978
2,1, 1,21, 0,18, 0.00,60.00,WinterDesignDay
74,451500279.3573414
110,0.0
542,0.0
843,354090407.37276348
2054,451500279.3573414
2,1, 1,21, 0,19, 0.00,60.00,WinterDesignDay
74,379711488.4371884
110,0.0
542,0.0
843,6791184.0
2054,379711488.4371884
2,1, 1,21, 0,20, 0.00,60.00,WinterDesignDay
74,401091557.1757913
110,0.0
542,0.0
843,6791184.0
2054,401091557.1757914
2,1, 1,21, 0,21, 0.00,60.00,WinterDesignDay
74,285091082.88764789
110,0.0
542,0.0
843,6791184.0
2054,285091082.887648
2,1, 1,21, 0,22, 0.00,60.00,WinterDesignDay
74,402307899.4893397
110,0.0
542,0.0
843,6791184.0
2054,402307899.48933979
2,1, 1,21, 0,23, 0.00,60.00,WinterDesignDay
74,57820118.38244256
110,0.0
542,0.0
843,6791184.0
2054,57820118.382442567
2,1, 1,21, 0,24, 0.00,60.00,WinterDesignDay
74,55700185.03528388
110,0.0
542,0.0
843,6791184.0
2054,55700185.03528388
1,BUFFALO.NIAGARA.INTL.AP_NY_USA ANN CLG .4% CONDNS DB=>MWB,  41.98, -87.92,  -6.00, 201.00
2,1, 7,21, 0, 1, 0.00,60.00,SummerDesignDay
74,473916505.45450308
110,152517470.7542746
542,224813060.55296705
843,6791184.0
2054,473916505.45450296
2,1, 7,21, 0, 2, 0.00,60.00,SummerDesignDay
74,492541029.814433
110,152517470.7542746
542,224813060.55296705
843,6791184.0
2054,492541029.81443306
2,1, 7,21, 0, 3, 0.00,60.00,SummerDesignDay
74,468346208.1359231
110,152517470.7542746
542,224813060.55296705
843,6791184.0
2054,468346208.1359231
2,1, 7,21, 0, 4, 0.00,60.00,SummerDesignDay
74,486512417.3158396
110,152517470.7542746
542,224813060.55296705
843,6791184.0
2054,486512417.31583949
2,1, 7,21, 0, 5, 0.00,60.00,SummerDesignDay
74,480404831.07023957
110,146464088.70784325
542,224813060.55296705
843,6791184.0
2054,480404831.07023957
2,1, 7,21, 0, 6, 0.00,60.00,SummerDesignDay
74,429440311.4391089
110,121600994.85496396
542,224813060.55296705
843,6791184.0
2054,429440311.4391089
2,1, 7,21, 0, 7, 0.00,60.00,SummerDesignDay
74,581494788.0460104
110,119991185.40467142
542,224813060.55296705
843,6791184.0
2054,581494788.0460104
2,1, 7,21, 0, 8, 0.00,60.00,SummerDesignDay
74,694252144.7160331
110,119991185.40467142
542,224813060.55296705
843,6791184.0
2054,694252144.716033
2,1, 7,21, 0, 9, 0.00,60.00,SummerDesignDay
74,694807053.9234153
110,119991185.40467142
542,224813060.55296705
843,6791184.0
2054,694807053.9234152
2,1, 7,21, 0,10, 0.00,60.00,SummerDesignDay
74,670354505.4113898
110,119991185.40467142
542,224813060.55296705
843,6791184.0
2054,670354505.4113897
2,1, 7,21, 0,11, 0.00,60.00,SummerDesignDay
74,668018650.7949312
110,119991185.40467142
542,224813060.55296705
843,6791184.0
2054,668018650.794931
2,1, 7,21, 0,12, 0.00,60.00,SummerDesignDay
74,667935176.1046635
110,119991185.40467142
542,224813060.55296705
843,20533704.347918206
2054,667935176.1046635
2,1, 7,21, 0,13, 0.00,60.00,SummerDesignDay
74,677629809.7376385
110,119991185.40467142
542,224813060.55296705
843,25827142.0009032
2054,677629809.7376385
2,1, 7,21, 0,14, 0.00,60.00,SummerDesignDay
74,692114022.3951025
110,119991185.40467142
542,224813060.55296705
843,25622702.60394471
2054,692114022.3951025
2,1, 7,21, 0,15, 0.00,60.00,SummerDesignDay
74,697599825.04279
110,119991185.40467142
542,224813060.55296705
843,15534615.40930457
2054,697599825.0427899
2,1, 7,21, 0,16, 0.00,60.00,SummerDesignDay
74,688616552.4083178
110,119991185.40467142
542,224813060.55296705
843,15504246.298754404
2054,688616552.4083177
2,1, 7,21, 0,17, 0.00,60.00,SummerDesignDay
74,671502607.0471958
110,119991185.40467142
542,224813060.55296705
843,20386474.47055768
2054,671502607.0471958
2,1, 7,21, 0,18, 0.00,60.00,SummerDesignDay
74,647045024.2364055
110,119991185.40467142
542,224813060.55296705
843,11046139.973089006
2054,647045024.2364055
2,1, 7,21, 0,19, 0.00,60.00,SummerDesignDay
74,616591260.4840084
110,126962440.61666635
542,224813060.55296705
843,10983120.15537858
2054,616591260.4840084
2,1, 7,21, 0,20, 0.00,60.00,SummerDesignDay
74,613332405.3885398
110,152517470.7542746
542,224813060.55296705
843,6791184.0
2054,613332405.3885398
2,1, 7,21, 0,21, 0.00,60.00,SummerDesignDay
74,621032725.4358147
110,152517470.7542746
542,224813060.55296705
843,6791184.0
2054,621032725.4358147
2,1, 7,21, 0,22, 0.00,60.00,SummerDesignDay
74,635581594.6066269
110,152517470.7542746
542,224813060.55296705
843,6791184.0
2054,635581594.6066269
2,1, 7,21, 0,23, 0.00,60.00,SummerDesignDay
74,470678782.56673356
110,152517470.7542746
542,224813060.55296705
843,6791184.0
2054,470678782.5667335
2,1, 7,21, 0,24, 0.00,60.00,SummerDesignDay
74,492156488.82667127
110,152517470.7542746
542,224813060.55296705
843,6791184.0
2054,492156488.82667127
1,RUNPERIOD 1,  41.98, -87.92,  -6.00, 201.00
2,1, 7, 1, 1, 1, 0.00,60.00,Sunday
74,98179188.04026596
110,3861201.791338584
542,33399901.5013581
843,6791184.0
2054,98179188.04026596
2,1, 7, 1, 1, 2, 0.00,60.00,Sunday
74,94064440.1351583
110,3861201.791338584
542,33399901.5013581
843,6791184.0
2054,94064440.1351583
2,1, 7, 1, 1, 3, 0.00,60.00,Sunday
74,77033060.25753434
110,3861201.791338584
542,33399901.5013581
843,6791184.0
2054,77033060.25753434
2,1, 7, 1, 1, 4, 0.00,60.00,Sunday
74,91115183.08264007
110,3861201.791338584
542,33399901.5013581
843,6791184.0
2054,91115183.08264008
2,1, 7, 1, 1, 5, 0.00,60.00,Sunday
74,84528444.26338652
110,3861201.791338584
542,33399901.5013581
843,6791184.0
2054,84528444.26338652
2,1, 7, 1, 1, 6, 0.00,60.00,Sunday
74,76164626.73224151
110,4997429.827626919
542,41385398.90873409
843,6791184.0
2054,76164626.73224151
2,1, 7, 1, 1, 7, 0.00,60.00,Sunday
74,89700276.92244894
110,5179615.347335821
542,41385398.90873409
843,6791184.0
2054,89700276.92244894
2,1, 7, 1, 1, 8, 0.00,60.00,Sunday
74,68480785.13290094
110,5173573.547439723
542,41385398.90873409
843,6791184.0
2054,68480785.13290093
2,1, 7, 1, 1, 9, 0.00,60.00,Sunday
74,63441367.62330623
110,5173573.547439723
542,41385398.90873409
843,6791184.0
2054,63441367.62330623
2,1, 7, 1, 1,10, 0.00,60.00,Sunday
74,61530434.50686537
110,5173573.547439723
542,41385398.90873409
843,6791184.0
2054,61530434.50686537
2,1, 7, 1, 1,11, 0.00,60.00,Sunday
74,62703847.478929478
110,5173573.547439723
542,41385398.90873409
843,6791184.0
2054,62703847.47892946
2,1, 7, 1, 1,12, 0.00,60.00,Sunday
74,72030445.1707886
110,5173573.547439723
542,41385398.90873409
843,6791184.0
2054,72030445.1707886
2,1, 7, 1, 1,13, 0.00,60.00,Sunday
74,65886719.54014686
110,5173573.547439723
542,41385398.90873409
843,6791184.0
2054,65886719.54014685
2,1, 7, 1, 1,14, 0.00,60.00,Sunday
74,70911583.60809769
110,5173573.547439723
542,41385398.90873409
843,6791184.0
2054,70911583.60809769
2,1, 7, 1, 1,15, 0.00,60.00,Sunday
74,69913342.45717447
110,5173573.547439723
542,41385398.90873409
843,6791184.0
2054,69913342.45717447
2,1, 7, 1, 1,16, 0.00,60.00,Sunday
74,67918052.7363269
110,5173573.547439723
542,41385398.90873409
843,6791184.0
2054,67918052.7363269
2,1, 7, 1, 1,17, 0.00,60.00,Sunday
74,67663619.59939341
110,5175587.612851601
542,41385398.90873409
843,6791184.0
2054,67663619.5993934
2,1, 7, 1, 1,18, 0.00,60.00,Sunday
74,55100371.547295439
110,4361050.127674929
542,33399901.5013581
843,6791184.0
2054,55100371.54729543
2,1, 7, 1, 1,19, 0.00,60.00,Sunday
74,60544655.110479999
110,3863456.8296300105
542,33399901.5013581
843,6791184.0
2054,60544655.110479999
2,1, 7, 1, 1,20, 0.00,60.00,Sunday
74,59965868.05102396
110,3861201.791338584
542,33399901.5013581
843,6791184.0
2054,59965868.051023948
2,1, 7, 1, 1,21, 0.00,60.00,Sunday
74,68973025.00257443
110,3861201.791338584
542,33399901.5013581
843,6791184.0
2054,68973025.00257442
2,1, 7, 1, 1,22, 0.00,60.00,Sunday
74,67572397.57981779
110,3861201.791338584
542,33399901.5013581
843,6791184.0
2054,67572397.57981779
2,1, 7, 1, 1,23, 0.00,60.00,Sunday
74,80374603.82531268
110,3861201.791338584
542,33399901.5013581
843,6791184.0
2054,80374603.82531266
2,1, 7, 1, 1,24, 0.00,60.00,Sunday
74,103833456.08815658
110,3861201.791338584
542,33399901.5013581
843,6791184.0
2054,103833456.08815658
2,2, 7, 2, 1, 1, 0.00,60.00,Monday
74,92227706.40430868
110,3861201.791338584
542,44533202.00181078
843,6791184.0
2054,92227706.40430866
2,2, 7, 2, 1, 2, 0.00,60.00,Monday
74,105609594.84855557
110,3861201.791338584
542,44533202.00181078
843,6791184.0
2054,105609594.84855557
2,2, 7, 2, 1, 3, 0.00,60.00,Monday
74,106454433.94433627
110,3861201.791338584
542,44533202.00181078
843,6791184.0
2054,106454433.94433627
2,2, 7, 2, 1, 4, 0.00,60.00,Monday
74,89832139.99718815
110,3861201.791338584
542,44533202.00181078
843,6791184.0
2054,89832139.99718814
2,2, 7, 2, 1, 5, 0.00,60.00,Monday
74,99054421.82783725
110,3861201.791338584
542,44533202.00181078
843,6791184.0
2054,99054421.82783726
2,2, 7, 2, 1, 6, 0.00,60.00,Monday
74,177403743.65525205
110,8837622.411509667
542,55180531.87831212
843,6791184.0
2054,177403743.65525205
2,2, 7, 2, 1, 7, 0.00,60.00,Monday
74,239414096.38889183
110,31053524.884430559
542,95796493.41677365
843,6791184.0
2054,239414096.38889183
2,2, 7, 2, 1, 8, 0.00,60.00,Monday
74,399274182.66384598
110,93124323.85391507
542,204227663.7591693
843,6791184.0
2054,399274182.66384598
2,2, 7, 2, 1, 9, 0.00,60.00,Monday
74,369821857.5770569
110,93124323.85391507
542,174055806.61631219
843,6791184.0
2054,369821857.5770569
2,2, 7, 2, 1,10, 0.00,60.00,Monday
74,367342408.6754794
110,93124323.85391507
542,167093070.35257594
843,6791184.0
2054,367342408.67547938
2,2, 7, 2, 1,11, 0.00,60.00,Monday
74,391418432.75003758
110,93124323.85391507
542,174055806.61631219
843,11403365.724994354
2054,391418432.75003746
2,2, 7, 2, 1,12, 0.00,60.00,Monday
74,404310345.677429
110,93124323.85391507
542,177667514.30607478
843,28817910.314092608
2054,404310345.6774291
2,2, 7, 2, 1,13, 0.00,60.00,Monday
74,438144358.21141359
110,93124323.85391507
542,179858086.8360924
843,22854433.136355234
2054,438144358.21141359
2,2, 7, 2, 1,14, 0.00,60.00,Monday
74,434017220.2896442
110,93124323.85391507
542,167093070.35257594
843,19999589.77394921
2054,434017220.2896441
2,2, 7, 2, 1,15, 0.00,60.00,Monday
74,433835335.9400037
110,93124323.85391507
542,167093070.35257594
843,15551256.206703522
2054,433835335.94000366
2,2, 7, 2, 1,16, 0.00,60.00,Monday
74,449421817.511616
110,93124323.85391507
542,177537174.74818034
843,20469957.413240196
2054,449421817.51161596
2,2, 7, 2, 1,17, 0.00,60.00,Monday
74,333957777.4332027
110,51735735.47439728
542,140923939.57316489
843,11049937.997537967
2054,333957777.43320277
2,2, 7, 2, 1,18, 0.00,60.00,Monday
74,214588236.52669014
110,31077694.462052164
542,69106004.40578464
843,10972032.91987897
2054,214588236.52669014
2,2, 7, 2, 1,19, 0.00,60.00,Monday
74,191047362.6322478
110,31902036.56509499
542,59822356.05413629
843,6791184.0
2054,191047362.6322478
2,2, 7, 2, 1,20, 0.00,60.00,Monday
74,172539487.3508363
110,26003773.31949283
542,59822356.05413629
843,10922349.62929346
2054,172539487.35083635
2,2, 7, 2, 1,21, 0.00,60.00,Monday
74,159744023.7826336
110,26303943.895732467
542,55180531.87831212
843,6791184.0
2054,159744023.78263364
2,2, 7, 2, 1,22, 0.00,60.00,Monday
74,92160146.13827384
110,13151971.947866233
542,55180531.87831212
843,6791184.0
2054,92160146.13827384
2,2, 7, 2, 1,23, 0.00,60.00,Monday
74,81505394.65000429
110,6575985.9739331169
542,55180531.87831212
843,6791184.0
2054,81505394.65000427
2,2, 7, 2, 1,24, 0.00,60.00,Monday
74,103247948.2063687
110,4802369.727932371
542,44533202.00181078
843,6791183.999999999
2054,103247948.20636872
2,3, 7, 3, 1, 1, 0.00,60.00,Tuesday
74,82977162.5116795
110,3861201.791338584
542,44533202.00181078
843,6791184.0
2054,82977162.51167949
2,3, 7, 3, 1, 2, 0.00,60.00,Tuesday
74,94007408.53939614
110,3861201.791338584
542,44533202.00181078
843,6791184.0
2054,94007408.53939614
2,3, 7, 3, 1, 3, 0.00,60.00,Tuesday
74,96851723.45866129
110,3861201.791338584
542,44533202.00181078
843,6791184.0
2054,96851723.4586613
2,3, 7, 3, 1, 4, 0.00,60.00,Tuesday
74,80895693.27430973
110,3861201.791338584
542,44533202.00181078
843,6791184.0
2054,80895693.27430971
2,3, 7, 3, 1, 5, 0.00,60.00,Tuesday
74,85505351.91193402
110,3861201.791338584
542,44533202.00181078
843,6791184.0
2054,85505351.91193402
2,3, 7, 3, 1, 6, 0.00,60.00,Tuesday
74,121209941.19126369
110,8768916.141582618
542,55180531.87831212
843,6791184.0
2054,121209941.19126368
2,3, 7, 3, 1, 7, 0.00,60.00,Tuesday
74,204971575.39247615
110,31041441.284638365
542,95796493.41677365
843,6791184.0
2054,204971575.39247615
2,3, 7, 3, 1, 8, 0.00,60.00,Tuesday
74,372356244.7832257
110,93124323.85391507
542,204227663.7591693
843,6791184.0
2054,372356244.7832257
2,3, 7, 3, 1, 9, 0.00,60.00,Tuesday
74,358269744.5510284
110,93124323.85391507
542,174055806.61631219
843,6791184.0
2054,358269744.55102846
2,3, 7, 3, 1,10, 0.00,60.00,Tuesday
74,360082157.4173123
110,93124323.85391507
542,167093070.35257594
843,6791184.0
2054,360082157.4173124
2,3, 7, 3, 1,11, 0.00,60.00,Tuesday
74,382510915.1018956
110,93124323.85391507
542,174055806.61631219
843,16005563.20296932
2054,382510915.1018956
2,3, 7, 3, 1,12, 0.00,60.00,Tuesday
74,390288016.5103801
110,93124323.85391507
542,177667514.30607478
843,25967795.423314789
2054,390288016.51038017
2,3, 7, 3, 1,13, 0.00,60.00,Tuesday
74,415033211.9872371
110,93124323.85391507
542,179858086.8360924
843,25735726.857375966
2054,415033211.987237
2,3, 7, 3, 1,14, 0.00,60.00,Tuesday
74,405887201.73592749
110,93124323.85391507
542,167093070.35257594
843,15560610.514300369
2054,405887201.73592749
2,3, 7, 3, 1,15, 0.00,60.00,Tuesday
74,412348645.30107668
110,93124323.85391507
542,167093070.35257594
843,15539053.637453417
2054,412348645.3010766
2,3, 7, 3, 1,16, 0.00,60.00,Tuesday
74,432822377.8657985
110,93124323.85391507
542,177537174.74818034
843,20468721.9431059
2054,432822377.8657984
2,3, 7, 3, 1,17, 0.00,60.00,Tuesday
74,328070176.9537693
110,51735735.47439728
542,140923939.57316489
843,14091108.4132877
2054,328070176.9537694
2,3, 7, 3, 1,18, 0.00,60.00,Tuesday
74,211544969.28689123
110,31077694.462052164
542,69106004.40578464
843,7999074.050387602
2054,211544969.28689126
2,3, 7, 3, 1,19, 0.00,60.00,Tuesday
74,194467889.56062115
110,32309908.64848469
542,59822356.05413629
843,10910886.54339391
2054,194467889.56062115
2,3, 7, 3, 1,20, 0.00,60.00,Tuesday
74,194956591.68532495
110,26108387.809161135
542,59822356.05413629
843,6791184.0
2054,194956591.68532498
2,3, 7, 3, 1,21, 0.00,60.00,Tuesday
74,188283311.9642237
110,26303943.895732467
542,55180531.87831212
843,6791184.0
2054,188283311.96422375
2,3, 7, 3, 1,22, 0.00,60.00,Tuesday
74,115179009.86007911
110,13151971.947866233
542,55180531.87831212
843,6791184.0
2054,115179009.86007911
2,3, 7, 3, 1,23, 0.00,60.00,Tuesday
74,99763077.26480726
110,6575985.9739331169
542,55180531.87831212
843,6791184.0
2054,99763077.26480726
2,3, 7, 3, 1,24, 0.00,60.00,Tuesday
74,99295053.49511972
110,4802369.727932371
542,44533202.00181078
843,6791184.0
2054,99295053.49511972
2,4, 7, 4, 1, 1, 0.00,60.00,Holiday
74,95986550.99583665
110,3861201.791338584
542,33399901.5013581
843,6791184.0
2054,95986550.99583665
2,4, 7, 4, 1, 2, 0.00,60.00,Holiday
74,95580541.09520182
110,3861201.791338584
542,33399901.5013581
843,6791184.0
2054,95580541.09520184
2,4, 7, 4, 1, 3, 0.00,60.00,Holiday
74,77846952.77525519
110,3861201.791338584
542,33399901.5013581
843,6791184.0
2054,77846952.7752552
2,4, 7, 4, 1, 4, 0.00,60.00,Holiday
74,93743178.7649405
110,3861201.791338584
542,33399901.5013581
843,6791184.0
2054,93743178.7649405
2,4, 7, 4, 1, 5, 0.00,60.00,Holiday
74,91171284.4452689
110,3861201.791338584
542,33399901.5013581
843,6791184.0
2054,91171284.4452689
2,4, 7, 4, 1, 6, 0.00,60.00,Holiday
74,80636851.7561531
110,4867108.294708632
542,41385398.90873409
843,6791184.0
2054,80636851.7561531
2,4, 7, 4, 1, 7, 0.00,60.00,Holiday
74,127183715.24462316
110,5173573.547439723
542,41385398.90873409
843,6791184.0
2054,127183715.24462316
2,4, 7, 4, 1, 8, 0.00,60.00,Holiday
74,126833558.1622724
110,5173573.547439723
542,41385398.90873409
843,6791184.0
2054,126833558.16227238
2,4, 7, 4, 1, 9, 0.00,60.00,Holiday
74,111839216.62932439
110,5173573.547439723
542,41385398.90873409
843,6791184.0
2054,111839216.62932439
2,4, 7, 4, 1,10, 0.00,60.00,Holiday
74,121412800.6445421
110,5173573.547439723
542,41385398.90873409
843,6791184.0
2054,121412800.64454209
2,4, 7, 4, 1,11, 0.00,60.00,Holiday
74,128858324.553859
110,5173573.547439723
542,41385398.90873409
843,6791184.0
2054,128858324.55385898
2,4, 7, 4, 1,12, 0.00,60.00,Holiday
74,99149685.30719546
110,5173573.547439723
542,41385398.90873409
843,6791184.0
2054,99149685.30719544
2,4, 7, 4, 1,13, 0.00,60.00,Holiday
74,125852172.0879221
110,5173573.547439723
542,41385398.90873409
843,6791184.0
2054,125852172.08792208
2,4, 7, 4, 1,14, 0.00,60.00,Holiday
74,138149841.9250986
110,5173573.547439723
542,41385398.90873409
843,6791184.0
2054,138149841.9250986
2,4, 7, 4, 1,15, 0.00,60.00,Holiday
74,119366737.17047689
110,5173573.547439723
542,41385398.90873409
843,6791184.0
2054,119366737.17047689
2,4, 7, 4, 1,16, 0.00,60.00,Holiday
74,135416619.97920046
110,5173573.547439723
542,41385398.90873409
843,6791184.0
2054,135416619.97920043
2,4, 7, 4, 1,17, 0.00,60.00,Holiday
74,142606232.12260596
110,5173573.547439723
542,41385398.90873409
843,6791184.0
2054,142606232.12260596
2,4, 7, 4, 1,18, 0.00,60.00,Holiday
74,108837327.47433864
110,4334396.938010403
542,33399901.5013581
843,6791184.0
2054,108837327.47433864
2,4, 7, 4, 1,19, 0.00,60.00,Holiday
74,109465133.88576761
110,3847468.3964255468
542,33399901.5013581
843,6791184.0
2054,109465133.88576761
2,4, 7, 4, 1,20, 0.00,60.00,Holiday
74,98654877.50232029
110,3861201.791338584
542,33399901.5013581
843,6791184.0
2054,98654877.50232029
2,4, 7, 4, 1,21, 0.00,60.00,Holiday
74,68573794.93245518
110,3861201.791338584
542,33399901.5013581
843,6791184.0
2054,68573794.93245518
2,4, 7, 4, 1,22, 0.00,60.00,Holiday
74,82655475.93833775
110,3861201.791338584
542,33399901.5013581
843,6791184.0
2054,82655475.93833775
2,4, 7, 4, 1,23, 0.00,60.00,Holiday
74,80902985.66647668
110,3861201.791338584
542,33399901.5013581
843,6791184.0
2054,80902985.66647668
2,4, 7, 4, 1,24, 0.00,60.00,Holiday
74,88272678.75326669
110,3861201.791338584
542,33399901.5013581
843,6791184.0
2054,88272678.75326668
2,5, 7, 5, 1, 1, 0.00,60.00,Thursday
74,113268986.53067288
110,3861201.791338584
542,44533202.00181078
843,6791184.0
2054,113268986.53067288
2,5, 7, 5, 1, 2, 0.00,60.00,Thursday
74,114376120.67964518
110,3861201.791338584
542,44533202.00181078
843,6791184.0
2054,114376120.67964518
2,5, 7, 5, 1, 3, 0.00,60.00,Thursday
74,94363346.7380704
110,3861201.791338584
542,44533202.00181078
843,6791184.0
2054,94363346.7380704
2,5, 7, 5, 1, 4, 0.00,60.00,Thursday
74,111196836.93675521
110,3861201.791338584
542,44533202.00181078
843,6791184.0
2054,111196836.93675521
2,5, 7, 5, 1, 5, 0.00,60.00,Thursday
74,105356993.5935837
110,3861201.791338584
542,44533202.00181078
843,6791184.0
2054,105356993.59358374
2,5, 7, 5, 1, 6, 0.00,60.00,Thursday
74,234802024.7471735
110,8768916.141582618
542,55180531.87831212
843,6791184.0
2054,234802024.7471735
2,5, 7, 5, 1, 7, 0.00,60.00,Thursday
74,305359343.4678323
110,31041441.284638365
542,95796493.41677365
843,6791184.0
2054,305359343.4678323
2,5, 7, 5, 1, 8, 0.00,60.00,Thursday
74,502317909.1995631
110,93124323.85391507
542,204227663.7591693
843,6791184.0
2054,502317909.1995631
2,5, 7, 5, 1, 9, 0.00,60.00,Thursday
74,490322731.45341017
110,93124323.85391507
542,174055806.61631219
843,6791184.0
2054,490322731.4534102
2,5, 7, 5, 1,10, 0.00,60.00,Thursday
74,500060233.9903456
110,93124323.85391507
542,167093070.35257594
843,6791184.0
2054,500060233.9903456
2,5, 7, 5, 1,11, 0.00,60.00,Thursday
74,527015908.2996881
110,93124323.85391507
542,174055806.61631219
843,11396462.759572395
2054,527015908.29968819
2,5, 7, 5, 1,12, 0.00,60.00,Thursday
74,528768934.4460093
110,93124323.85391507
542,177667514.30607478
843,25918275.323478864
2054,528768934.4460093
2,5, 7, 5, 1,13, 0.00,60.00,Thursday
74,545334571.1858703
110,93124323.85391507
542,179858086.8360924
843,25720708.94215956
2054,545334571.1858702
2,5, 7, 5, 1,14, 0.00,60.00,Thursday
74,557054794.8341322
110,93124323.85391507
542,167093070.35257594
843,15564285.209840103
2054,557054794.8341322
2,5, 7, 5, 1,15, 0.00,60.00,Thursday
74,564159637.757725
110,93124323.85391507
542,167093070.35257594
843,17427021.186163729
2054,564159637.757725
2,5, 7, 5, 1,16, 0.00,60.00,Thursday
74,572152401.6354072
110,93124323.85391507
542,177537174.74818034
843,21371872.753682887
2054,572152401.6354072
2,5, 7, 5, 1,17, 0.00,60.00,Thursday
74,452683649.2377185
110,51735735.47439728
542,140923939.57316489
843,12596427.603239961
2054,452683649.2377185
2,5, 7, 5, 1,18, 0.00,60.00,Thursday
74,308972454.528434
110,31077694.462052164
542,69106004.40578464
843,10991042.535460966
2054,308972454.528434
2,5, 7, 5, 1,19, 0.00,60.00,Thursday
74,275954413.8795359
110,32216390.952058894
542,59822356.05413629
843,6791184.0
2054,275954413.8795359
2,5, 7, 5, 1,20, 0.00,60.00,Thursday
74,252275895.7407859
110,25863838.99505731
542,59822356.05413629
843,6791184.0
2054,252275895.7407859
2,5, 7, 5, 1,21, 0.00,60.00,Thursday
74,244863578.10050149
110,26303943.895732467
542,55180531.87831212
843,6791184.0
2054,244863578.1005015
2,5, 7, 5, 1,22, 0.00,60.00,Thursday
74,113395418.91144434
110,13151971.947866233
542,55180531.87831212
843,6791184.0
2054,113395418.91144434
2,5, 7, 5, 1,23, 0.00,60.00,Thursday
74,108160353.2439772
110,6575985.9739331169
542,55180531.87831212
843,6791184.0
2054,108160353.2439772
2,5, 7, 5, 1,24, 0.00,60.00,Thursday
74,99124176.48574582
110,4802369.727932371
542,44533202.00181078
843,6791184.0
2054,99124176.48574582
2,6, 7, 6, 1, 1, 0.00,60.00,Friday
74,113382711.90379034
110,3861201.791338584
542,44533202.00181078
843,6791184.0
2054,113382711.90379034
2,6, 7, 6, 1, 2, 0.00,60.00,Friday
74,113454517.6157319
110,3861201.791338584
542,44533202.00181078
843,6791184.0
2054,113454517.6157319
2,6, 7, 6, 1, 3, 0.00,60.00,Friday
74,96483588.8777132
110,3861201.791338584
542,44533202.00181078
843,6791184.0
2054,96483588.8777132
2,6, 7, 6, 1, 4, 0.00,60.00,Friday
74,118946561.35891873
110,3861201.791338584
542,44533202.00181078
843,6791184.0
2054,118946561.35891873
2,6, 7, 6, 1, 5, 0.00,60.00,Friday
74,113046064.36655997
110,3861201.791338584
542,44533202.00181078
843,6791184.0
2054,113046064.36655997
2,6, 7, 6, 1, 6, 0.00,60.00,Friday
74,231793417.49958373
110,8788004.314586617
542,55180531.87831212
843,6791184.0
2054,231793417.49958379
2,6, 7, 6, 1, 7, 0.00,60.00,Friday
74,313618412.2357112
110,31041441.284638365
542,95796493.41677365
843,6791184.0
2054,313618412.2357113
2,6, 7, 6, 1, 8, 0.00,60.00,Friday
74,514163949.27438488
110,93124323.85391507
542,204227663.7591693
843,6791184.0
2054,514163949.27438488
2,6, 7, 6, 1, 9, 0.00,60.00,Friday
74,501998199.3787156
110,93124323.85391507
542,174055806.61631219
843,6791184.0
2054,501998199.37871566
2,6, 7, 6, 1,10, 0.00,60.00,Friday
74,507201209.97309789
110,93124323.85391507
542,167093070.35257594
843,6791184.0
2054,507201209.9730978
2,6, 7, 6, 1,11, 0.00,60.00,Friday
74,540341551.6790125
110,93124323.85391507
542,174055806.61631219
843,16001025.869938849
2054,540341551.6790123
2,6, 7, 6, 1,12, 0.00,60.00,Friday
74,542698517.3426029
110,93124323.85391507
542,177667514.30607478
843,25957603.276692917
2054,542698517.3426029
2,6, 7, 6, 1,13, 0.00,60.00,Friday
74,574680904.8569079
110,93124323.85391507
542,179858086.8360924
843,25664436.40515194
2054,574680904.8569076
2,6, 7, 6, 1,14, 0.00,60.00,Friday
74,572415990.3812044
110,93124323.85391507
542,167093070.35257594
843,15595648.351903132
2054,572415990.3812044
2,6, 7, 6, 1,15, 0.00,60.00,Friday
74,574828298.7128632
110,93124323.85391507
542,167093070.35257594
843,16937205.901639794
2054,574828298.7128633
2,6, 7, 6, 1,16, 0.00,60.00,Friday
74,582140182.723761
110,93124323.85391507
542,177537174.74818034
843,20988260.860225943
2054,582140182.7237609
2,6, 7, 6, 1,17, 0.00,60.00,Friday
74,461557258.11516347
110,51735735.47439728
542,140923939.57316489
843,13442956.1829933
2054,461557258.11516347
2,6, 7, 6, 1,18, 0.00,60.00,Friday
74,307819485.8284931
110,31134958.981064157
542,69106004.40578464
843,10973895.586403974
2054,307819485.8284931
2,6, 7, 6, 1,19, 0.00,60.00,Friday
74,262796443.21756367
110,36610649.95280749
542,59822356.05413629
843,6791184.0
2054,262796443.21756367
2,6, 7, 6, 1,20, 0.00,60.00,Friday
74,236422340.92850263
110,26303943.895732467
542,59822356.05413629
843,6791184.0
2054,236422340.92850263
2,6, 7, 6, 1,21, 0.00,60.00,Friday
74,230484517.469734
110,26303943.895732467
542,55180531.87831212
843,6791184.0
2054,230484517.469734
2,6, 7, 6, 1,22, 0.00,60.00,Friday
74,108166365.91008273
110,13151971.947866233
542,55180531.87831212
843,6791184.0
2054,108166365.91008272
2,6, 7, 6, 1,23, 0.00,60.00,Friday
74,94996524.35395515
110,6575985.9739331169
542,55180531.87831212
843,6791184.0
2054,94996524.35395515
2,6, 7, 6, 1,24, 0.00,60.00,Friday
74,127164476.56111855
110,4802369.727932371
542,44533202.00181078
843,6791184.0
2054,127164476.56111855
2,7, 7, 7, 1, 1, 0.00,60.00,Saturday
74,113493694.58410093
110,3861201.791338584
542,33399901.5013581
843,6791184.0
2054,113493694.58410093
2,7, 7, 7, 1, 2, 0.00,60.00,Saturday
74,89735905.52766182
110,3861201.791338584
542,33399901.5013581
843,6791184.0
2054,89735905.52766182
2,7, 7, 7, 1, 3, 0.00,60.00,Saturday
74,111852979.11618698
110,3861201.791338584
542,33399901.5013581
843,6791184.0
2054,111852979.11618696
2,7, 7, 7, 1, 4, 0.00,60.00,Saturday
74,114232576.85950247
110,3861201.791338584
542,33399901.5013581
843,6791184.0
2054,114232576.85950247
2,7, 7, 7, 1, 5, 0.00,60.00,Saturday
74,81936639.45814739
110,3861201.791338584
542,33399901.5013581
843,6791184.0
2054,81936639.45814739
2,7, 7, 7, 1, 6, 0.00,60.00,Saturday
74,221253436.5799141
110,8887882.357309856
542,55180531.87831212
843,6791184.0
2054,221253436.5799141
2,7, 7, 7, 1, 7, 0.00,60.00,Saturday
74,234487844.1649751
110,10371314.294463836
542,73747828.58160882
843,6791184.0
2054,234487844.1649751
2,7, 7, 7, 1, 8, 0.00,60.00,Saturday
74,236956369.86889739
110,31041441.284638365
542,85222049.46327476
843,6791184.0
2054,236956369.8688974
2,7, 7, 7, 1, 9, 0.00,60.00,Saturday
74,245954940.83821935
110,31041441.284638365
542,93345241.77096707
843,6791184.0
2054,245954940.83821935
2,7, 7, 7, 1,10, 0.00,60.00,Saturday
74,242180736.91063775
110,31041441.284638365
542,89863873.63909894
843,6791184.0
2054,242180736.91063778
2,7, 7, 7, 1,11, 0.00,60.00,Saturday
74,262046764.25149734
110,31041441.284638365
542,97987065.94679125
843,6791184.0
2054,262046764.25149734
2,7, 7, 7, 1,12, 0.00,60.00,Saturday
74,222172962.15693
110,15520720.642319182
542,72652542.31660003
843,6791184.0
2054,222172962.15693004
2,7, 7, 7, 1,13, 0.00,60.00,Saturday
74,211116502.67519898
110,15520720.642319182
542,63368893.96495168
843,6791184.0
2054,211116502.67519898
2,7, 7, 7, 1,14, 0.00,60.00,Saturday
74,193234389.07906083
110,15520720.642319182
542,57566613.74517146
843,6791184.0
2054,193234389.0790608
2,7, 7, 7, 1,15, 0.00,60.00,Saturday
74,177996151.99932409
110,15520720.642319182
542,52924789.569347288
843,6791184.0
2054,177996151.9993241