Program Version,EnergyPlus, Version 9.1.0-08d2e308bb, YMD=2019.08.08 15:56
1,5,Environment Title[],Latitude[deg],Longitude[deg],Time Zone[],Elevation[m]
2,8,Day of Simulation[],Month[],Day of Month[],DST Indicator[1=yes 0=no],Hour[],StartMinute[],EndMinute[],DayType
3,5,Cumulative Day of Simulation[],Month[],Day of Month[],DST Indicator[1=yes 0=no],DayType  ! When Daily Report Variables Requested
4,2,Cumulative Days of Simulation[],Month[]  ! When Monthly Report Variables Requested
5,1,Cumulative Days of Simulation[] ! When Run Period Report Variables Requested
6,1,Calendar Year of Simulation[] ! When Annual Report Variables Requested
990,1,CORE_BOTTOM,Zone Mean Air Temperature [C] !TimeStep
991,1,TOPFLOOR_PLENUM,Zone Mean Air Temperature [C] !TimeStep
992,1,MIDFLOOR_PLENUM,Zone Mean Air Temperature [C] !TimeStep
993,1,FIRSTFLOOR_PLENUM,Zone Mean Air Temperature [C] !TimeStep
994,1,CORE_MID,Zone Mean Air Temperature [C] !TimeStep
995,1,CORE_TOP,Zone Mean Air Temperature [C] !TimeStep
996,1,PERIMETER_TOP_ZN_3,Zone Mean Air Temperature [C] !TimeStep
997,1,PERIMETER_TOP_ZN_2,Zone Mean Air Temperature [C] !TimeStep
998,1,PERIMETER_TOP_ZN_1,Zone Mean Air Temperature [C] !TimeStep
999,1,PERIMETER_TOP_ZN_4,Zone Mean Air Temperature [C] !TimeStep
1000,1,PERIMETER_BOT_ZN_3,Zone Mean Air Temperature [C] !TimeStep
1001,1,PERIMETER_BOT_ZN_2,Zone Mean Air Temperature [C] !TimeStep
1002,1,PERIMETER_BOT_ZN_1,Zone Mean Air Temperature [C] !TimeStep
1003,1,PERIMETER_BOT_ZN_4,Zone Mean Air Temperature [C] !TimeStep
1004,1,PERIMETER_MID_ZN_3,Zone Mean Air Temperature [C] !TimeStep
1005,1,PERIMETER_MID_ZN_2,Zone Mean Air Temperature [C] !TimeStep
1006,1,PERIMETER_MID_ZN_1,Zone Mean Air Temperature [C] !TimeStep
1007,1,PERIMETER_MID_ZN_4,Zone Mean Air Temperature [C] !TimeStep
2215,1,SETPOINT_CUSTOMIZE,Schedule Value [] !TimeStep
2439,1,PERIMETER_TOP_ZN_3 VAV BOX OUTLET NODE,System Node Temperature [C] !TimeStep
2440,1,PERIMETER_TOP_ZN_3 VAV BOX OUTLET NODE,System Node Mass Flow Rate [kg/s] !TimeStep
End of Data Dictionary
1,BUFFALO.NIAGARA.INTL.AP_NY_USA ANN HTG 99.6% CONDNS DB,  41.98, -87.92,  -6.00, 201.00
2,1, 1,21, 0, 1, 0.00,15.00,WinterDesignDay
990,19.792573949965616
991,14.796943800492177
992,17.360914010427309
993,18.044035923758185
994,18.640990552160724
995,17.659097784156164
996,21.546992895272298
997,15.626942208476953
998,15.631091242092796
999,15.627223414407745
1000,15.854951824781687
1001,15.715805952883441
1002,15.782658208009689
1003,15.654872851386149
1004,15.613457947065474
1005,15.61360697615309
1006,15.613913445372349
1007,15.614980797719629
2215,22.0
2439,58.78275429029404
2440,0.31920019613346609
2,1, 1,21, 0, 1,15.00,30.00,WinterDesignDay
990,19.754463330942927
991,14.78193770641654
992,17.307902144486549
993,18.01334873719999
994,18.510310542629946
995,17.55922944993124
996,21.98572692699822
997,15.601371047580633
998,15.601188065469163
999,15.601474620189404
1000,15.78152795102027
1001,15.63885695277342
1002,15.708267260519163
1003,15.577389479740742
1004,15.600300565387413
1005,15.60066484195842
1006,15.600458185477438
1007,15.60072371379417
2215,22.0
2439,58.37309695962473
2440,0.3192001961334661
2,1, 1,21, 0, 1,30.00,45.00,WinterDesignDay
990,19.70954597106274
991,14.169203236634435
992,17.31839136108843
993,17.97379141053735
994,18.634505556063155
995,17.61715300613204
996,18.534255199907809
997,14.424715774889848
998,14.434588003654099
999,14.383927805417742
1000,15.69559436681494
1001,15.54890083856145
1002,15.621165643140865
1003,15.48682877116535
1004,15.059382892865138
1005,14.964736870109059
1006,15.024911767987066
1007,14.92623097461488
2215,22.0
2439,14.255118216020965
2440,0.0
2,1, 1,21, 0, 1,45.00,60.00,WinterDesignDay
990,19.67314705301297
991,14.510252397927302
992,17.21834454579519
993,17.94065467395792
994,18.418661474399458
995,17.441410097936484
996,21.525613231421166
997,15.596640764758286
998,15.596875986272467
999,15.589944957831519
1000,15.625547830008723
1001,15.475431095704538
1002,15.550125878067988
1003,15.412867680787107
1004,15.6218932021597
1005,15.620555725959659
1006,15.622027445091302
1007,15.621710321080887
2215,22.0
2439,59.21040432127733
2440,0.31920019613346575
2,1, 1,21, 0, 2, 0.00,15.00,WinterDesignDay
990,19.64643854109125
991,14.527127950186453
992,17.18043216726679
993,17.91400665674842
994,18.325585432472616
995,17.36035819160032
996,21.98510676936568
997,15.599820191821287
998,15.599871953149382
999,15.599461782894407
1000,15.570112781038583
1001,15.417140072310496
1002,15.493895417224384
1003,15.354175074216596
1004,15.600498423038735
1005,15.601030936950317
1006,15.6007431984301
1007,15.601077821799699
2215,22.0
2439,59.154851761209169
2440,0.3192001961334661
2,1, 1,21, 0, 2,15.00,30.00,WinterDesignDay
990,19.61308099821103
991,13.922031642909334
992,17.199524523468104
993,17.87954445797716
994,18.47215522544192
995,17.423264326741977
996,18.484350262682108
997,14.245402786336117
998,14.221291822990669
999,14.183690641000642
1000,15.504178364724697
1001,15.347912686945307
1002,15.42699816993541
1003,15.284492975629189
1004,14.945745006230933
1005,14.844853970721836
1006,14.910164589983197
1007,14.805421288328195
2215,22.0
2439,14.00674078108801
2440,0.0
2,1, 1,21, 0, 2,30.00,45.00,WinterDesignDay
990,19.584976688674968
991,14.299364919221233
992,17.11301427500516
993,17.84951699924772
994,18.28585392038933
995,17.26971956122464
996,21.508359701129927
997,15.562117626427959
998,15.55887091534735
999,15.556580058807079
1000,15.448199115883062
1001,15.289163960370353
1002,15.37018868161865
1003,15.22536252611816
1004,15.627996467444083
1005,15.625851364525769
1006,15.628133622765195
1007,15.626962496584643
2215,22.0
2439,59.556980294750157
2440,0.3192001961334658
2,1, 1,21, 0, 2,45.00,60.00,WinterDesignDay
990,19.563290502400784
991,14.337075584071635
992,17.082054620355124
993,17.824650972361
994,18.2057643145929
995,17.198954514161519
996,21.984609105634865
997,15.598083458017479
998,15.598464003549737
999,15.59768610812597
1000,15.40242094052361
1001,15.24106842439341
1002,15.32372853436119
1003,15.176948295543707
1004,15.600650420052933
1005,15.601333133069613
1006,15.600972624723488
1007,15.601380119207964
2215,22.0
2439,59.798076366694179
2440,0.3192001961334661
2,1, 1,21, 0, 3, 0.00,15.00,WinterDesignDay
990,19.506788124200026
991,13.735458301576156
992,17.098888710840673
993,17.788395536601688
994,18.355661153901388
995,17.260291385191669
996,18.443234673018844
997,14.175932556473438
998,14.208428981068965
999,14.148468277955738
1000,15.436729281122709
1001,15.324034660051649
1002,15.382713503716584
1003,15.280209546772527
1004,14.849381491821003
1005,14.742299963460228
1006,14.81238367007716
1007,14.7012481281024
2215,22.0
2439,13.812693762751785
2440,0.0
2,1, 1,21, 0, 3,15.00,30.00,WinterDesignDay
990,19.134093686379388
991,14.14210865884797
992,17.020942050733994
993,17.713760478482699
994,18.18281729170299
995,17.12214034540134
996,21.493697278024017
997,15.553645945811783
998,15.556105219347629
999,15.551536019946667
1000,15.605504166405576
1001,15.610362061111632
1002,15.608501536504348
1003,15.612773492799745
1004,15.632638135873038
1005,15.629947216261258
1006,15.632415922714209
1007,15.623075077154708
2215,22.0
2439,59.86747023101652
2440,0.31920019613346636
2,1, 1,21, 0, 3,30.00,45.00,WinterDesignDay
990,19.300374072795614
991,14.192022564214085
992,16.994194515745538
993,17.71717426663188
994,18.10850918528822
995,17.05853117545286
996,21.984188258630178
997,15.59766771197203
998,15.598370250270861
999,15.597467150098025
1000,15.393116099235409
1001,15.296832475049389
1002,15.348760593236474
1003,15.260146523467473
1004,15.60077260733824
1005,15.60159250125745
1006,15.601155318002182
1007,15.601220413155744
2215,22.0
2439,60.35178002291478
2440,0.3192001961334662
2,1, 1,21, 0, 3,45.00,60.00,WinterDesignDay
990,19.259785550487157
991,13.590573343608302
992,17.005282184286768
993,17.68089300798321
994,18.256279685501963
995,17.116546872635728
996,18.40699058781358
997,14.118969390764797
998,14.139491991206171
999,14.084907096040883
1000,15.467076207075705
1001,15.407292195170701
1002,15.440190862352463
1003,15.38544345842961
1004,14.764250226528365
1005,14.646107877002163
1006,14.721768718406917
1007,14.60664449188033
2215,22.0
2439,13.667761837510478
2440,0.0
2,1, 1,21, 0, 4, 0.00,15.00,WinterDesignDay
990,18.98261171820276
991,14.01553740663296
992,16.931644706616138
993,17.613749073593767
994,18.09152023328127
995,16.990215541334629
996,21.480946812300077
997,15.546677886279645
998,15.547940047963622
999,15.543902033511566
1000,15.602452043147907
1001,15.603353974142994
1002,15.603022540598652
1003,15.603871125580485
1004,15.631420082853318
1005,15.604704554459295
1006,15.621314508820986
1007,15.598054766332642
2215,22.0
2439,60.127369890732158
2440,0.31920019613346609
2,1, 1,21, 0, 4,15.00,30.00,WinterDesignDay
990,19.17017842318445
991,14.073417326993632
992,16.908541979047749
993,17.620269891568165
994,18.020301298157326
995,16.93159310038839
996,21.98382375086152
997,15.597381571992049
998,15.59811673014484
999,15.597131993422997
1000,15.326824458133516
1001,15.231228909568895
1002,15.283038616035965
1003,15.195201113517868
1004,15.600759078555136
1005,15.600254124293525
1006,15.600794271221205
1007,15.599889749703383
2215,22.0
2439,60.84045433657586
2440,0.3192001961334661
2,1, 1,21, 0, 4,30.00,45.00,WinterDesignDay
990,18.880565661872266
991,13.4707466852475
992,16.913571631186309
993,17.549683335992357
994,18.163980740834778
995,16.984996288107508
996,18.374463988734605
997,14.046284336663853
998,14.094919521497023
999,14.019682181756999
1000,15.61395360161795
1001,15.617575772638917
1002,15.616014035915516
1003,15.619415663252429
1004,14.686050796513735
1005,14.5622206826202
1006,14.639530112680238
1007,14.515972897080076
2215,22.0
2439,13.548086047938139
2440,0.0
2,1, 1,21, 0, 4,45.00,60.00,WinterDesignDay
990,18.772163726226066
991,13.908329653390418
992,16.84349650315463
993,17.502405942626959
994,18.005267956246649
995,16.86830749994093
996,21.469418503795219
997,15.538241328563953
998,15.542371530381093
999,15.536223556218568
1000,15.60002078385629
1001,15.600052550847343
1002,15.600030801352093
1003,15.600057642077532
1004,15.605253976665555
1005,15.585421779437184
1006,15.598084179921074
1007,15.577475480294588
2215,22.0
2439,60.363923349351917
2440,0.31920019613346575
2,1, 1,21, 0, 5, 0.00,15.00,WinterDesignDay
990,19.018734967753895
991,13.971428624135673
992,16.824030748772988
993,17.518705739391196
994,17.93615563617481
995,16.813521249103638
996,21.983495445723638
997,15.597018339200105
998,15.597948768151685
999,15.596789347232415
1000,15.265691255938802
1001,15.168829222327869
1002,15.221334505735907
1003,15.132668547829582
1004,15.60012416938051
1005,15.599210154460444
1006,15.599923110213167
1007,15.598804404364096
2215,22.0
2439,61.28788124728143
2440,0.3192001961334661
2,1, 1,21, 0, 5,15.00,30.00,WinterDesignDay
990,18.775059741155844
991,13.367214320108538
992,16.822753719279537
993,17.46095346256419
994,18.074939410173088
995,16.861828804690416
996,18.34472454011897
997,14.004497052518376
998,14.044252946357707
999,13.972023295528159
1000,15.617597837767719
1001,15.62104176615361
1002,15.619643788381268
1003,15.622906898425035
1004,14.60821772231265
1005,14.464490277176197
1006,14.547941156928033
1007,14.409085508632064
2215,22.0
2439,13.444760007446089
2440,0.0
2,1, 1,21, 0, 5,30.00,45.00,WinterDesignDay
990,18.68875134277063
991,13.814425481354807
992,16.756481308467625
993,17.422358669249595
994,17.921350177930785
995,16.753596317240335
996,21.458810540157154
997,15.533037683810996
998,15.536296197942754
999,15.530426157804634
1000,15.600026242610307
1001,15.600063392444913
1002,15.60003804376595
1003,15.6000685262127
1004,15.587074607416549
1005,15.567382854845875
1006,15.577230351182262
1007,15.562440008664723
2215,22.0
2439,60.58270850319867
2440,0.3192001961334659
2,1, 1,21, 0, 5,45.00,60.00,WinterDesignDay
990,18.937426238920204
991,13.880717460338263
992,16.740757614992846
993,17.435182857610135
994,17.853915545275947
995,16.70203203159324
996,21.983194430890209
997,15.596803515711168
998,15.597762430759256
999,15.596535231922787
1000,15.212537543524121
1001,15.114176000986252
1002,15.168115586392379
1003,15.07784447020593
1004,15.599657983212268
1005,15.598244996982118
1006,15.599169410657204
1007,15.59800088539248
2215,22.0
2439,61.703870656514727
2440,0.3192001961334661
2,1, 1,21, 0, 6, 0.00,15.00,WinterDesignDay
990,18.70874733824243
991,13.27447756838862
992,16.732869558455364
993,17.51851021982155
994,17.98761012572866
995,16.744993085459585
996,18.31662837991386
997,13.94958778170136
998,13.989081064776626
999,13.914274152960113
1000,17.32653808471488
1001,17.314367103045936
1002,17.32012502263745
1003,17.305990284187759
1004,14.527347259610889
1005,14.370752703885529
1006,14.399372752238732
1007,14.355189611726324
2215,22.0
2439,13.352301831801804
2440,0.0
2,1, 1,21, 0, 6,15.00,30.00,WinterDesignDay
990,18.632105531765583
991,13.89326103645191
992,16.80042402369105
993,17.591680848429225
994,17.839411471366434
995,17.571911900906568
996,21.445295088841914
997,17.12434968780741
998,17.131064359688389
999,17.119299886197767
1000,17.599412778840358
1001,17.597110527092835
1002,17.59836909440113
1003,17.596001668307115
1004,17.190899246059126
1005,17.159276966793269
1006,17.162020660287895
1007,17.159884229972179
2215,22.0
2439,60.851007877938318
2440,0.319200196133466
2,1, 1,21, 0, 6,30.00,45.00,WinterDesignDay
990,18.880273658641057
991,14.090935226993837
992,16.901437217142388
993,17.487954202965985
994,17.782450919682338
995,17.59987135738608
996,21.912803504938404
997,17.595632131638089
998,17.596839204301089
999,17.595380802570309
1000,16.20603791698547
1001,16.120100976848059
1002,16.1824106732251
1003,16.085694386753344
1004,17.59819861243036
1005,17.595794662590305
1006,17.59717210061743
1007,17.595868300937498
2215,22.0
2439,64.45905709264719
2440,0.31920019613346625
2,1, 1,21, 0, 6,45.00,60.00,WinterDesignDay
990,18.664759561596627
991,13.427516867294795
992,16.77998684961118
993,17.564653207480818
994,17.91879725096807
995,17.24156782711677
996,18.293881652322925
997,15.100982867468345
998,15.117175064536172
999,15.069305997912366
1000,17.50304481811646
1001,17.492270485152294
1002,17.50032857757789
1003,17.486836004416199
1004,15.719082109226914
1005,15.617015638590548
1006,15.678173607934424
1007,15.585700320708792
2215,22.0
2439,13.51285340359313
2440,0.0
2,1, 1,21, 0, 7, 0.00,15.00,WinterDesignDay
990,19.570149391026594
991,14.47754562597542
992,17.252675887044278
993,17.97398701826685
994,19.342750752613968
995,19.16462985823927
996,21.520487717795385
997,18.806668269900447
998,18.822722867610286
999,18.801502697335267
1000,19.276115394864588
1001,19.250618821725437
1002,19.267151089944659
1003,19.2446988666319
1004,18.8523759554367
1005,18.792486248349698
1006,18.829988380227954
1007,18.79209813629042
2215,22.0
2439,56.7398886620506
2440,0.31920019613346609
2,1, 1,21, 0, 7,15.00,30.00,WinterDesignDay
990,19.59957247448512
991,14.870879509022969
992,17.573524774028223
993,18.176512812978446
994,19.59710364387287
995,19.5462009128135
996,21.96433828148314
997,19.418598609899257
998,19.443245245416294
999,19.414291463760248
1000,19.596623876457298
1001,19.577699440803565
1002,19.595499351533556
1003,19.573185926882095
1004,19.46317951419801
1005,19.40168664481369
1006,19.438370521618329
1007,19.403484009436384
2215,22.0
2439,60.22283122455914
2440,0.3192001961334662
2,1, 1,21, 0, 7,30.00,45.00,WinterDesignDay
990,19.599992785524159
991,15.270029667215408
992,17.805522370305643
993,18.309792109310619
994,19.599943889117069
995,19.59882373670399
996,21.99885077449448
997,19.592458723974539
998,19.595182287000893
999,19.591924160441147
1000,19.599945113991216
1001,19.59911744745441
1002,19.599893059438118
1003,19.598944354091367
1004,19.59724591898452
1005,19.591392506909526
1006,19.595216760017018
1007,19.59161137623103
2215,22.0
2439,55.82030669471727
2440,0.3192001961334661
2,1, 1,21, 0, 7,45.00,60.00,WinterDesignDay
990,19.60000396757075
991,15.808073077517613
992,18.14484096419519
993,18.501360020577985
994,19.60000808115978
995,19.59998726578845
996,22.000008919254328
997,19.5997554941123
998,19.59989027526197
999,19.599717406916246
1000,19.600040657007545
1001,19.600026111842256
1002,19.600036828640996
1003,19.60002047170738
1004,19.59998633200467
1005,19.599690786156793
1006,19.599899394420647
1007,19.599707691261214
2215,22.0
2439,53.60608714203306
2440,0.3192001961334661
2,1, 1,21, 0, 8, 0.00,15.00,WinterDesignDay
990,20.840266976768406
991,16.06852615319684
992,18.27351448809466
993,18.662250255275997
994,20.69742887418483
995,20.678291806564006
996,22.00008938627772
997,20.767462321156925
998,20.803569033752745
999,20.763791770012938
1000,20.73456642427238
1001,20.64737634873692
1002,20.716508495344614
1003,20.635443586059979
1004,20.76198878325399
1005,20.65376635388064
1006,20.731507435433426
1007,20.664367213342925
2215,22.0
2439,52.56822782136438
2440,0.3192001961334661
2,1, 1,21, 0, 8,15.00,30.00,WinterDesignDay
990,20.9957460220828
991,16.360838597965495
992,18.42500246788628
993,18.820297580413376
994,20.963525630966239
995,20.952492635930427
996,22.00015763656664
997,20.990773977107716
998,20.994291004747475
999,20.99018106250662
1000,20.984120340721156
1001,20.878252109086675
1002,20.95280756439378
1003,20.870062485979319
1004,20.995534590433058
1005,20.885344172549645
1006,20.972894750887094
1007,20.894967009042327
2215,22.0
2439,51.83149436844995
2440,0.3192001961334661
2,1, 1,21, 0, 8,30.00,45.00,WinterDesignDay
990,20.999915541568194
991,16.792263751470345
992,18.656695883402877
993,19.03743804902632
994,20.999239424098258
995,20.999033718299566
996,22.000173863073554
997,20.99985534481376
998,21.000012036902313
999,20.999808500788946
1000,20.999861620891524
1001,20.995365193694746
1002,20.998936170586835
1003,20.99509158689593
1004,21.000103685862
1005,20.99529621445985
1006,20.999380805051648
1007,20.995785710880435
2215,22.0
2439,51.160703122599219
2440,0.3192001961334661
2,1, 1,21, 0, 8,45.00,60.00,WinterDesignDay
990,21.000039403953669
991,17.0450780942473
992,18.74911904034906
993,19.118920334924139
994,21.000053378157145
995,21.0000714952048
996,22.000237521935927
997,21.000320627735129
998,21.000252977084338
999,21.00031342964351
1000,21.000258168590528
1001,21.000217558271218
1002,21.000228220770866
1003,21.000219284483547
1004,21.00027374554931
1005,21.000214450454146
1006,21.000231385569469
1007,21.000230098487127
2215,22.0
2439,50.58354177770232
2440,0.3192001961334661
2,1, 1,21, 0, 9, 0.00,15.00,WinterDesignDay
990,21.00003515885107
991,17.181592989439154
992,18.755924719801784
993,19.121333615611783
994,21.00005130980912
995,21.00006799470233
996,22.00025060299165
997,21.00034189351572
998,21.00026592973682
999,21.000334244288177
1000,21.000279339736446
1001,21.000297109706997
1002,21.00025054092391
1003,21.0003019779655
1004,21.0002976211111
1005,21.000301438494949
1006,21.000250181524824
1007,21.00030909049135
2215,22.0
2439,50.10115715231291
2440,0.3192001961334661
2,1, 1,21, 0, 9,15.00,30.00,WinterDesignDay
990,21.00003062639038
991,17.288825863022678
992,18.759480204467253
993,19.122401990965345
994,21.000045832865255
995,21.000060680898924
996,22.000259750625739
997,21.000351040431644
998,21.00027476160437
999,21.000342183909426
1000,21.000298483400348
1001,21.000311877225749
1002,21.000262432923234
1003,21.000317305858244
1004,21.00032023636917
1005,21.000316103047746
1006,21.000260087103564
1007,21.00032335053624
2215,22.0
2439,49.69862174221913
2440,0.3192001961334661
2,1, 1,21, 0, 9,30.00,45.00,WinterDesignDay
990,21.00002894053632
991,17.38705004003689
992,18.77971615935055
993,19.139567583621877
994,21.000043917714526
995,21.000058330740619
996,22.000284993957629
997,21.000383523505254
998,21.000299646712013
999,21.000373976747335
1000,21.000328246901174
1001,21.000340169329914
1002,21.000285934111095
1003,21.000346163102976
1004,21.000354629926919
1005,21.000345855358739
1006,21.00028365396855
1007,21.000353696392386
2215,22.0
2439,49.383229968448407
2440,0.3192001961334661
2,1, 1,21, 0, 9,45.00,60.00,WinterDesignDay
990,21.00002825615279
991,17.469107554119739
992,18.8040201194666
993,19.160458589293964
994,21.0000433089421
995,21.000057514358976
996,22.00031299986949
997,21.000420215357694
998,21.0003271719085
999,21.000410069613588
1000,21.000359559211117
1001,21.00037171270698
1002,21.000311482685676
1003,21.000378283527156
1004,21.000390695640115
1005,21.000379417694757
1006,21.00030995873558
1007,21.00038797304076
2215,22.0
2439,49.12155011022617
2440,0.3192001961334661
2,1, 1,21, 0,10, 0.00,15.00,WinterDesignDay
990,21.00002721224015
991,17.533375361286227
992,18.82392888185975
993,19.177150872663288
994,21.000042248447007
995,21.000055850302137
996,22.000332216459108
997,21.000443949545845
998,21.000345855951374
999,21.000433009286416
1000,21.00038419724314
1001,21.000393224921443
1002,21.000330346159815
1003,21.000400258267978
1004,21.000419227738573
1005,21.000401789807829
1006,21.000328936437876
1007,21.00041096006605
2215,22.0
2439,48.901450383136339
2440,0.3192001961334661
2,1, 1,21, 0,10,15.00,30.00,WinterDesignDay
990,21.000025764808645
991,17.584753661699258
992,18.84049380218508
993,19.190703532909884
994,21.000040656222937
995,21.000053453349609
996,22.00034166404001
997,21.000453209755898
998,21.0003547682173
999,21.000441441080409
1000,21.000400537856657
1001,21.00040269742702
1002,21.00034112035044
1003,21.000410041874358
1004,21.00043841099947
1005,21.00041101729053
1006,21.00033910227631
1007,21.00042062859176
2215,22.0
2439,48.6901317722565
2440,0.3192001961334661
2,1, 1,21, 0,10,30.00,45.00,WinterDesignDay
990,21.00002614432068
991,17.62745378459178
992,18.85656821940508
993,19.20381147953383
994,21.000041688722559
995,21.000054655516708
996,22.000375052078824
997,21.000498108056349
998,21.000387508310113
999,21.000485676620437
1000,21.000435757880067
1001,21.000441064758538
1002,21.000370936385936
1003,21.00044908276262
1004,21.00047893393767
1005,21.000452294016776
1006,21.000370530678713
1007,21.000462769056094
2215,22.0
2439,48.52348427556016
2440,0.3192001961334661
2,1, 1,21, 0,10,45.00,60.00,WinterDesignDay
990,21.000027007084698
991,17.66334580533839
992,18.8729590626882
993,19.217231178239869
994,21.000043420258373
995,21.000056707399439
996,22.000414839335997
997,21.00055192717605
998,21.00042655797128
999,21.00053869766364
1000,21.000476860598437
1001,21.0004873869292
1002,21.000406430330729
1003,21.0004962002069
1004,21.000525952252436
1005,21.00050182687933
1006,21.00040795631755
1007,21.000513325529427
2215,22.0
2439,48.375488552231519
2440,0.3192001961334661
2,1, 1,21, 0,11, 0.00,15.00,WinterDesignDay
990,21.00002706244722
991,17.693146243425493
992,18.889213298054359
993,19.230541683818485
994,21.000044047088708
995,21.000057158232769
996,22.00044364880012
997,21.000588903418377
998,21.000454821467469
999,21.000574541830316
1000,21.00051070770724
1001,21.00052073955848
1002,21.00043407660792
1003,21.000530219851887
1004,21.00056456254238
1005,21.000536281017188
1006,21.000436122124609
1007,21.000548679597853
2215,22.0
2439,48.24414937580583
2440,0.3192001961334661
2,1, 1,21, 0,11,15.00,30.00,WinterDesignDay
990,21.000026378591497
991,17.71805035463097
992,18.905051064720398
993,19.243472853605107
994,21.000043640961225
995,21.00005626864567
996,22.000459266162126
997,21.00060610786877
998,21.000470066707736
999,21.00059051720444
1000,21.00053446632668
1001,21.00053793280231
1002,21.000451351310717
1003,21.000547877914486
1004,21.00059156928846
1005,21.00055265420875
1006,21.00045249643525
1007,21.00056571480181
2215,22.0
2439,48.13138482467069
2440,0.3192001961334661
2,1, 1,21, 0,11,30.00,45.00,WinterDesignDay
990,21.000025164052404
991,17.739300280796198
992,18.92055243035667
993,19.25609235986073
994,21.000042408412587
995,21.000054494054547
996,22.000457840277016
997,21.00059803199905
998,21.000468353711449
999,21.000581470589933
1000,21.000542973005165
1001,21.00053338198231
1002,21.00045390783631
1003,21.000543466087483
1004,21.000601191666097
1005,21.00054556860799
1006,21.000452799389107
1007,21.000558868863615
2215,22.0
2439,48.020648095462679
2440,0.3192001961334661
2,1, 1,21, 0,11,45.00,60.00,WinterDesignDay
990,21.000024503099934
991,17.757683004034815
992,18.935837579470129
993,19.268514928500218
994,21.0000418288091
995,21.000053843735907
996,22.00045172067427
997,21.000583150214493
998,21.00046170769391
999,21.000566145026715
1000,21.000544728009716
1001,21.000521819574577
1002,21.000450888882005
1003,21.000531872991549
1004,21.000603096804985
1005,21.000531774125837
1006,21.000447602256146
1007,21.00054505680476
2215,22.0
2439,47.917779892580778
2440,0.3192001961334661
2,1, 1,21, 0,12, 0.00,15.00,WinterDesignDay
990,21.000024860832043
991,17.773688080774379
992,18.950937963957427
993,19.280775365654099
994,21.00004255424033
995,21.00005504895829
996,22.000449088196935
997,21.00057376544325
998,21.000458134125276
999,21.0005568184091
1000,21.000546213847597
1001,21.00051377099635
1002,21.00044900109347
1003,21.000523762428427
1004,21.000604646824386
1005,21.000522800537725
1006,21.00044443132882
1007,21.000535981903999
2215,22.0
2439,47.821484596375928
2440,0.3192001961334661
2,1, 1,21, 0,12,15.00,30.00,WinterDesignDay
990,21.00002591624533
991,17.787403311466986
992,18.965764998483029
993,19.29280718248885
994,21.000044176823
995,21.00005738853846
996,22.00045029713202
997,21.000570559613707
998,21.00045810419572
999,21.000553931179576
1000,21.000548650255309
1001,21.000510471319939
1002,21.00044925790745
1003,21.000520420496568
1004,21.000607293746865
1005,21.000519618994823
1006,21.00044423574689
1007,21.000532703498537
2215,22.0
2439,47.71850514614154
2440,0.3192001961334661
2,1, 1,21, 0,12,30.00,45.00,WinterDesignDay
990,21.000028171357369
991,17.799331205927844
992,18.980353307896505
993,19.304636358221474
994,21.000047500023134
995,21.000061794906118
996,22.000471808414276
997,21.000597644083979
998,21.00047779150555
999,21.000581332373839
1000,21.000567044974607
1001,21.000532726672629
1002,21.0004658856478
1003,21.000542973332263
1004,21.000627931113365
1005,21.00054444256607
1006,21.000462283552353
1007,21.00055784744912
2215,22.0
2439,47.633970922965847
2440,0.3192001961334661
2,1, 1,21, 0,12,45.00,60.00,WinterDesignDay
990,21.000030222999265
991,17.810046542232134
992,18.994783218243265
993,19.31632619961804
994,21.000050595198727
995,21.000065646992437
996,22.000497836400695
997,21.000631729183117
998,21.00050202863709
999,21.000615369462645
1000,21.000590519666738
1001,21.000561985128934
1002,21.00048730647328
1003,21.000572668924609
1004,21.000654211808688
1005,21.00057614495763
1006,21.000485224451805
1007,21.00059007811862
2215,22.0
2439,47.552718656336747
2440,0.3192001961334661
2,1, 1,21, 0,13, 0.00,15.00,WinterDesignDay
990,21.000031193001694
991,17.81983194331526
992,19.009070833063956
993,19.327892108356094
994,21.000052243969756
995,21.000067439022048
996,22.000515767871286
997,21.000654223105739
998,21.000518688357006
999,21.00063736380966
1000,21.00060959064864
1001,21.000582665999717
1002,21.000503630246258
1003,21.00059373259116
1004,21.000675399368498
1005,21.000597478944209
1006,21.000501897004847
1007,21.000611918211069
2215,22.0
2439,47.47475941904621
2440,0.3192001961334661
2,1, 1,21, 0,13,15.00,30.00,WinterDesignDay
990,21.00003132999214
991,17.828801126423579
992,19.02319242534551
993,19.33931801429371
994,21.000052752132615
995,21.000067777156067
996,22.00052477497566
997,21.00066382985483
998,21.000526880567454
999,21.000646275373489
1000,21.000622633631225
1001,21.000592898707468
1002,21.000513422261599
1003,21.000604233759796
1004,21.00068962527314
1005,21.000606849004698
1006,21.000510913176485
1007,21.000621671289048
2215,22.0
2439,47.41042442756169
2440,0.3192001961334661
2,1, 1,21, 0,13,30.00,45.00,WinterDesignDay
990,21.000030530086077
991,17.837053187446526
992,19.037130809255026
993,19.350591644223209
994,21.00005187787171
995,21.00006649805502
996,22.000515033097224
997,21.000646185973783
998,21.00051694174939
999,21.00062806106876
1000,21.000619848524157
1001,21.000579787916857
1002,21.000507672199715
1003,21.000591057780864
1004,21.000685925045116
1005,21.000590867049995
1006,21.00050284709572
1007,21.000605651994577
2215,22.0
2439,47.33822750090691
2440,0.3192001961334661
2,1, 1,21, 0,13,45.00,60.00,WinterDesignDay
990,21.0000300182647
991,17.84469327681089
992,19.0508825576814
993,19.36171077144826
994,21.00005128266937
995,21.000065840712837
996,22.00050054344201
997,21.000621716245339
998,21.000502188041975
999,21.0006034621171
1000,21.000610851287154
1001,21.000559717436944
1002,21.000496612151527
1003,21.000570766776176
1004,21.000675202678523
1005,21.000568140798046
1006,21.000489479918003
1007,21.000582655744855
2215,22.0
2439,47.26864800198252
2440,0.3192001961334661
2,1, 1,21, 0,14, 0.00,15.00,WinterDesignDay
990,21.000030448118097
991,17.851814427826527
992,19.06445128873483
993,19.372678799544283
994,21.00005187085938
995,21.00006688106096
996,22.000491579509949
997,21.000605481332078
998,21.000492436649759
999,21.000587571457936
1000,21.00060350858728
1001,21.0005454783382
1002,21.000488388443519
1003,21.00055631703713
1004,21.000666364136558
1005,21.000552743142725
1006,21.000479963812965
1007,21.000566956083277
2215,22.0
2439,47.20140739661112
2440,0.3192001961334661
2,1, 1,21, 0,14,15.00,30.00,WinterDesignDay
990,21.00003155250578
991,17.858491488780545
992,19.077841166997115
993,19.38349977543842
994,21.000053319739704
995,21.00006900435583
996,22.0004889483236
997,21.00059890286564
998,21.000488604714606
999,21.00058154157443
1000,21.000599681774813
1001,21.00053912885972
1002,21.000484541289649
1003,21.000549825804535
1004,21.000661490953008
1005,21.00054639416108
1006,21.00047572955936
1007,21.00056037368564
2215,22.0
2439,47.13984659659249
2440,0.3192001961334661
2,1, 1,21, 0,14,30.00,45.00,WinterDesignDay