Program Version,EnergyPlus, Version 9.1.0-08d2e308bb, YMD=2019.06.19 08:24
1,5,Environment Title[],Latitude[deg],Longitude[deg],Time Zone[],Elevation[m]
2,8,Day of Simulation[],Month[],Day of Month[],DST Indicator[1=yes 0=no],Hour[],StartMinute[],EndMinute[],DayType
3,5,Cumulative Day of Simulation[],Month[],Day of Month[],DST Indicator[1=yes 0=no],DayType  ! When Daily Meters Requested
4,2,Cumulative Days of Simulation[],Month[]  ! When Monthly Meters Requested
5,1,Cumulative Days of Simulation[] ! When Run Period Meters Requested
6,1,Calendar Year of Simulation[] ! When Annual Meters Requested
74,1,Electricity:Facility [J] !Hourly
2054,1,ElectricityNet:Facility [J] !Hourly
843,1,Gas:Facility [J] !Hourly
110,1,InteriorLights:Electricity [J] !Hourly
542,1,InteriorEquipment:Electricity [J] !Hourly
End of Data Dictionary
1,BUFFALO.NIAGARA.INTL.AP_NY_USA ANN HTG 99.6% CONDNS DB,  42.93, -78.73,  -5.00, 215.00
2,1, 1,21, 0, 1, 0.00,60.00,WinterDesignDay
74,90880720.3690193
110,0.0
542,0.0
843,9281409.9235727
2054,90880720.36901927
2,1, 1,21, 0, 2, 0.00,60.00,WinterDesignDay
74,95548930.36608976
110,0.0
542,0.0
843,11481327.309765619
2054,95548930.36608976
2,1, 1,21, 0, 3, 0.00,60.00,WinterDesignDay
74,79917031.72688632
110,0.0
542,0.0
843,11013406.282647903
2054,79917031.72688632
2,1, 1,21, 0, 4, 0.00,60.00,WinterDesignDay
74,123234078.6705856
110,0.0
542,0.0
843,14346357.6318675
2054,123234078.6705856
2,1, 1,21, 0, 5, 0.00,60.00,WinterDesignDay
74,119079527.89389293
110,0.0
542,0.0
843,15086951.925779736
2054,119079527.89389295
2,1, 1,21, 0, 6, 0.00,60.00,WinterDesignDay
74,196504521.67614214
110,0.0
542,0.0
843,11916632.317077099
2054,196504521.67614208
2,1, 1,21, 0, 7, 0.00,60.00,WinterDesignDay
74,514816132.0613834
110,0.0
542,0.0
843,9478875.425566674
2054,514816132.0613836
2,1, 1,21, 0, 8, 0.00,60.00,WinterDesignDay
74,622519005.9231767
110,0.0
542,0.0
843,359828258.7105937
2054,622519005.9231767
2,1, 1,21, 0, 9, 0.00,60.00,WinterDesignDay
74,532248914.1179149
110,0.0
542,0.0
843,356477316.14237436
2054,532248914.1179149
2,1, 1,21, 0,10, 0.00,60.00,WinterDesignDay
74,505966834.53840497
110,0.0
542,0.0
843,355546775.35834839
2054,505966834.5384049
2,1, 1,21, 0,11, 0.00,60.00,WinterDesignDay
74,490150889.1510548
110,0.0
542,0.0
843,355054631.81718686
2054,490150889.1510548
2,1, 1,21, 0,12, 0.00,60.00,WinterDesignDay
74,477895843.3259099
110,0.0
542,0.0
843,354795473.79421237
2054,477895843.3259099
2,1, 1,21, 0,13, 0.00,60.00,WinterDesignDay
74,467807106.3361883
110,0.0
542,0.0
843,354624165.81799128
2054,467807106.3361883
2,1, 1,21, 0,14, 0.00,60.00,WinterDesignDay
74,458997904.8935068
110,0.0
542,0.0
843,354481866.7096768
2054,458997904.8935068
2,1, 1,21, 0,15, 0.00,60.00,WinterDesignDay
74,451345089.3484457
110,0.0
542,0.0
843,354346922.30243399
2054,451345089.3484457
2,1, 1,21, 0,16, 0.00,60.00,WinterDesignDay
74,444516519.43806257
110,0.0
542,0.0
843,358004764.07797577
2054,444516519.43806257
2,1, 1,21, 0,17, 0.00,60.00,WinterDesignDay
74,438188928.3800293
110,0.0
542,0.0
843,354441980.76411429
2054,438188928.3800293
2,1, 1,21, 0,18, 0.00,60.00,WinterDesignDay
74,451734454.549543
110,0.0
542,0.0
843,353959458.76372137
2054,451734454.549543
2,1, 1,21, 0,19, 0.00,60.00,WinterDesignDay
74,379845511.52577248
110,0.0
542,0.0
843,6791184.0
2054,379845511.5257726
2,1, 1,21, 0,20, 0.00,60.00,WinterDesignDay
74,401238549.96380177
110,0.0
542,0.0
843,6791184.0
2054,401238549.9638018
2,1, 1,21, 0,21, 0.00,60.00,WinterDesignDay
74,285165276.0349381
110,0.0
542,0.0
843,6791184.0
2054,285165276.03493818
2,1, 1,21, 0,22, 0.00,60.00,WinterDesignDay
74,402455060.2716774
110,0.0
542,0.0
843,6791184.0
2054,402455060.2716774
2,1, 1,21, 0,23, 0.00,60.00,WinterDesignDay
74,57845625.866248119
110,0.0
542,0.0
843,6791184.0
2054,57845625.8662481
2,1, 1,21, 0,24, 0.00,60.00,WinterDesignDay
74,55714894.339742887
110,0.0
542,0.0
843,6791184.0
2054,55714894.33974286
1,BUFFALO.NIAGARA.INTL.AP_NY_USA ANN CLG .4% CONDNS DB=>MWB,  42.93, -78.73,  -5.00, 215.00
2,1, 7,21, 0, 1, 0.00,60.00,SummerDesignDay
74,474448122.80585148
110,152517470.7542746
542,224813060.55296705
843,6791184.0
2054,474448122.8058516
2,1, 7,21, 0, 2, 0.00,60.00,SummerDesignDay
74,492606837.7106378
110,152517470.7542746
542,224813060.55296705
843,6791184.0
2054,492606837.7106378
2,1, 7,21, 0, 3, 0.00,60.00,SummerDesignDay
74,468641464.1059916
110,152517470.7542746
542,224813060.55296705
843,6791184.0
2054,468641464.1059916
2,1, 7,21, 0, 4, 0.00,60.00,SummerDesignDay
74,486765911.8309691
110,152517470.7542746
542,224813060.55296705
843,6791184.0
2054,486765911.8309691
2,1, 7,21, 0, 5, 0.00,60.00,SummerDesignDay
74,488654690.94024446
110,152517470.7542746
542,224813060.55296705
843,6791184.0
2054,488654690.94024446
2,1, 7,21, 0, 6, 0.00,60.00,SummerDesignDay
74,436419413.13737729
110,127102446.88489416
542,224813060.55296705
843,6791184.0
2054,436419413.13737717
2,1, 7,21, 0, 7, 0.00,60.00,SummerDesignDay
74,574082428.3681119
110,120037894.75201537
542,224813060.55296705
843,6791184.0
2054,574082428.3681119
2,1, 7,21, 0, 8, 0.00,60.00,SummerDesignDay
74,690012489.8350089
110,119991185.40467142
542,224813060.55296705
843,6791184.0
2054,690012489.8350087
2,1, 7,21, 0, 9, 0.00,60.00,SummerDesignDay
74,690855723.3324895
110,119991185.40467142
542,224813060.55296705
843,6791184.0
2054,690855723.3324895
2,1, 7,21, 0,10, 0.00,60.00,SummerDesignDay
74,667850800.7621948
110,119991185.40467142
542,224813060.55296705
843,6791184.0
2054,667850800.7621948
2,1, 7,21, 0,11, 0.00,60.00,SummerDesignDay
74,672514859.3484829
110,119991185.40467142
542,224813060.55296705
843,6791184.0
2054,672514859.3484827
2,1, 7,21, 0,12, 0.00,60.00,SummerDesignDay
74,672446884.9593455
110,119991185.40467142
542,224813060.55296705
843,20533787.22022605
2054,672446884.9593454
2,1, 7,21, 0,13, 0.00,60.00,SummerDesignDay
74,677982683.3580387
110,119991185.40467142
542,224813060.55296705
843,25827130.127181487
2054,677982683.3580387
2,1, 7,21, 0,14, 0.00,60.00,SummerDesignDay
74,691352251.6260713
110,119991185.40467142
542,224813060.55296705
843,25622697.30322809
2054,691352251.6260712
2,1, 7,21, 0,15, 0.00,60.00,SummerDesignDay
74,699076921.7157719
110,119991185.40467142
542,224813060.55296705
843,15534669.802998962
2054,699076921.7157718
2,1, 7,21, 0,16, 0.00,60.00,SummerDesignDay
74,692772559.4158511
110,119991185.40467142
542,224813060.55296705
843,15504308.881973919
2054,692772559.4158511
2,1, 7,21, 0,17, 0.00,60.00,SummerDesignDay
74,676606995.9016119
110,119991185.40467142
542,224813060.55296705
843,20386502.05214404
2054,676606995.9016119
2,1, 7,21, 0,18, 0.00,60.00,SummerDesignDay
74,654121694.5015267
110,119991185.40467142
542,224813060.55296705
843,11046212.037032556
2054,654121694.5015266
2,1, 7,21, 0,19, 0.00,60.00,SummerDesignDay
74,623242090.9390459
110,120994448.16172122
542,224813060.55296705
843,10983251.731742483
2054,623242090.9390458
2,1, 7,21, 0,20, 0.00,60.00,SummerDesignDay
74,614210786.755594
110,146537977.73355908
542,224813060.55296705
843,6791184.0
2054,614210786.755594
2,1, 7,21, 0,21, 0.00,60.00,SummerDesignDay
74,624528151.2903109
110,152517470.7542746
542,224813060.55296705
843,6791184.0
2054,624528151.2903109
2,1, 7,21, 0,22, 0.00,60.00,SummerDesignDay
74,638085973.3123179
110,152517470.7542746
542,224813060.55296705
843,6791184.0
2054,638085973.3123179
2,1, 7,21, 0,23, 0.00,60.00,SummerDesignDay
74,471210192.73542478
110,152517470.7542746
542,224813060.55296705
843,6791184.0
2054,471210192.7354247
2,1, 7,21, 0,24, 0.00,60.00,SummerDesignDay
74,493659091.6838072
110,152517470.7542746
542,224813060.55296705
843,6791184.0
2054,493659091.6838072
1,RUNPERIOD 1,  42.93, -78.73,  -5.00, 215.00
2,1, 7, 1, 1, 1, 0.00,60.00,Sunday
74,97137152.61832859
110,3861201.791338584
542,33399901.5013581
843,6791184.0
2054,97137152.61832859
2,1, 7, 1, 1, 2, 0.00,60.00,Sunday
74,92651840.44904354
110,3861201.791338584
542,33399901.5013581
843,6791184.0
2054,92651840.44904354
2,1, 7, 1, 1, 3, 0.00,60.00,Sunday
74,74450725.45675646
110,3861201.791338584
542,33399901.5013581
843,6791184.0
2054,74450725.45675648
2,1, 7, 1, 1, 4, 0.00,60.00,Sunday
74,86511573.81125827
110,3861201.791338584
542,33399901.5013581
843,6791184.0
2054,86511573.81125827
2,1, 7, 1, 1, 5, 0.00,60.00,Sunday
74,81394128.96302825
110,3861201.791338584
542,33399901.5013581
843,6791184.0
2054,81394128.96302827
2,1, 7, 1, 1, 6, 0.00,60.00,Sunday
74,73596111.16655714
110,4976504.073732063
542,41385398.90873409
843,6791184.0
2054,73596111.16655712
2,1, 7, 1, 1, 7, 0.00,60.00,Sunday
74,113319748.05357424
110,5189159.43383782
542,41385398.90873409
843,6791184.0
2054,113319748.05357424
2,1, 7, 1, 1, 8, 0.00,60.00,Sunday
74,99058225.7780619
110,5173573.547439723
542,41385398.90873409
843,6791184.0
2054,99058225.7780619
2,1, 7, 1, 1, 9, 0.00,60.00,Sunday
74,95145725.24309454
110,5173573.547439723
542,41385398.90873409
843,6791184.0
2054,95145725.24309454
2,1, 7, 1, 1,10, 0.00,60.00,Sunday
74,111290121.3608354
110,5173573.547439723
542,41385398.90873409
843,6791184.0
2054,111290121.36083539
2,1, 7, 1, 1,11, 0.00,60.00,Sunday
74,110303159.76017502
110,5173573.547439723
542,41385398.90873409
843,6791184.0
2054,110303159.76017502
2,1, 7, 1, 1,12, 0.00,60.00,Sunday
74,93257159.55887908
110,5173573.547439723
542,41385398.90873409
843,6791184.0
2054,93257159.55887908
2,1, 7, 1, 1,13, 0.00,60.00,Sunday
74,88904214.14863859
110,5173573.547439723
542,41385398.90873409
843,6791184.0
2054,88904214.14863859
2,1, 7, 1, 1,14, 0.00,60.00,Sunday
74,98831561.44905989
110,5173573.547439723
542,41385398.90873409
843,6791184.0
2054,98831561.44905988
2,1, 7, 1, 1,15, 0.00,60.00,Sunday
74,92151941.82435315
110,5173573.547439723
542,41385398.90873409
843,6791184.0
2054,92151941.82435315
2,1, 7, 1, 1,16, 0.00,60.00,Sunday
74,106963329.37633555
110,5173573.547439723
542,41385398.90873409
843,6791184.0
2054,106963329.37633553
2,1, 7, 1, 1,17, 0.00,60.00,Sunday
74,127334585.41010493
110,5173573.547439723
542,41385398.90873409
843,6791184.0
2054,127334585.41010493
2,1, 7, 1, 1,18, 0.00,60.00,Sunday
74,73705960.73160835
110,4329725.696864651
542,33399901.5013581
843,6791184.0
2054,73705960.73160835
2,1, 7, 1, 1,19, 0.00,60.00,Sunday
74,63383532.501671779
110,3807451.838500842
542,33399901.5013581
843,6791184.0
2054,63383532.50167178
2,1, 7, 1, 1,20, 0.00,60.00,Sunday
74,61953432.3904867
110,3871565.2849116956
542,33399901.5013581
843,6791184.0
2054,61953432.3904867
2,1, 7, 1, 1,21, 0.00,60.00,Sunday
74,76617095.01948247
110,3861201.791338584
542,33399901.5013581
843,6791184.0
2054,76617095.01948244
2,1, 7, 1, 1,22, 0.00,60.00,Sunday
74,84477637.6552792
110,3861201.791338584
542,33399901.5013581
843,6791184.0
2054,84477637.6552792
2,1, 7, 1, 1,23, 0.00,60.00,Sunday
74,66145954.992529857
110,3861201.791338584
542,33399901.5013581
843,6791184.0
2054,66145954.992529857
2,1, 7, 1, 1,24, 0.00,60.00,Sunday
74,105195027.08901453
110,3861201.791338584
542,33399901.5013581
843,6791184.0
2054,105195027.08901452
2,2, 7, 2, 1, 1, 0.00,60.00,Monday
74,113472377.32238885
110,3861201.791338584
542,44533202.00181078
843,6791184.0
2054,113472377.32238886
2,2, 7, 2, 1, 2, 0.00,60.00,Monday
74,94988992.71797377
110,3861201.791338584
542,44533202.00181078
843,6791184.0
2054,94988992.71797376
2,2, 7, 2, 1, 3, 0.00,60.00,Monday
74,113356398.25215286
110,3861201.791338584
542,44533202.00181078
843,6791184.0
2054,113356398.25215286
2,2, 7, 2, 1, 4, 0.00,60.00,Monday
74,115992394.27336827
110,3861201.791338584
542,44533202.00181078
843,6791184.0
2054,115992394.27336827
2,2, 7, 2, 1, 5, 0.00,60.00,Monday
74,93794661.48885304
110,3861201.791338584
542,44533202.00181078
843,6791184.0
2054,93794661.48885305
2,2, 7, 2, 1, 6, 0.00,60.00,Monday
74,200107881.41958265
110,9937643.091107872
542,55180531.87831212
843,6791184.0
2054,200107881.41958265
2,2, 7, 2, 1, 7, 0.00,60.00,Monday
74,261639396.4962135
110,32116358.332728395
542,95796493.41677365
843,6791184.0
2054,261639396.49621348
2,2, 7, 2, 1, 8, 0.00,60.00,Monday
74,432649907.68254926
110,93622374.60534024
542,204227663.7591693
843,6791184.0
2054,432649907.68254926
2,2, 7, 2, 1, 9, 0.00,60.00,Monday
74,395124164.5346046
110,93124323.85391507
542,174055806.61631219
843,6791184.0
2054,395124164.53460469
2,2, 7, 2, 1,10, 0.00,60.00,Monday
74,383970892.7021742
110,93124323.85391507
542,167093070.35257594
843,6791184.0
2054,383970892.70217409
2,2, 7, 2, 1,11, 0.00,60.00,Monday
74,388328564.6421391
110,93124323.85391507
542,174055806.61631219
843,11404678.899285779
2054,388328564.6421391
2,2, 7, 2, 1,12, 0.00,60.00,Monday
74,384490183.53136846
110,93124323.85391507
542,177667514.30607478
843,28836320.445293107
2054,384490183.53136846
2,2, 7, 2, 1,13, 0.00,60.00,Monday
74,427741450.8568522
110,93124323.85391507
542,179858086.8360924
843,22843494.0585593
2054,427741450.8568522
2,2, 7, 2, 1,14, 0.00,60.00,Monday
74,440810639.0005881
110,93124323.85391507
542,167093070.35257594
843,19999228.82890886
2054,440810639.0005881
2,2, 7, 2, 1,15, 0.00,60.00,Monday
74,443634492.5765023
110,93124323.85391507
542,167093070.35257594
843,15551273.928123799
2054,443634492.5765024
2,2, 7, 2, 1,16, 0.00,60.00,Monday
74,455234300.18914309
110,93124323.85391507
542,177537174.74818034
843,20470057.827289747
2054,455234300.18914297
2,2, 7, 2, 1,17, 0.00,60.00,Monday
74,335097610.50559529
110,51735735.47439728
542,140923939.57316489
843,11049759.686182805
2054,335097610.50559529
2,2, 7, 2, 1,18, 0.00,60.00,Monday
74,216371480.46386136
110,31041441.284638365
542,69106004.40578464
843,10971973.614988018
2054,216371480.46386136
2,2, 7, 2, 1,19, 0.00,60.00,Monday
74,199567610.1125835
110,31515175.823303485
542,59822356.05413629
843,6791184.0
2054,199567610.11258353
2,2, 7, 2, 1,20, 0.00,60.00,Monday
74,180408904.2019273
110,25038636.921326918
542,59822356.05413629
843,10927958.942900068
2054,180408904.20192734
2,2, 7, 2, 1,21, 0.00,60.00,Monday
74,180940864.51051725
110,26303943.895732467
542,55180531.87831212
843,6791184.0
2054,180940864.51051725
2,2, 7, 2, 1,22, 0.00,60.00,Monday
74,94567448.1727654
110,13151971.947866233
542,55180531.87831212
843,6791184.0
2054,94567448.1727654
2,2, 7, 2, 1,23, 0.00,60.00,Monday
74,93208781.74884835
110,6575985.9739331169
542,55180531.87831212
843,6791184.0
2054,93208781.74884834
2,2, 7, 2, 1,24, 0.00,60.00,Monday
74,105107094.58074437
110,4802369.727932371
542,44533202.00181078
843,6791183.999999999
2054,105107094.58074436
2,3, 7, 3, 1, 1, 0.00,60.00,Tuesday
74,82947895.95307645
110,3861201.791338584
542,44533202.00181078
843,6791184.0
2054,82947895.95307645
2,3, 7, 3, 1, 2, 0.00,60.00,Tuesday
74,93614286.26308407
110,3861201.791338584
542,44533202.00181078
843,6791184.0
2054,93614286.26308407
2,3, 7, 3, 1, 3, 0.00,60.00,Tuesday
74,96213017.8504766
110,3861201.791338584
542,44533202.00181078
843,6791184.0
2054,96213017.85047661
2,3, 7, 3, 1, 4, 0.00,60.00,Tuesday
74,82454758.59325287
110,3861201.791338584
542,44533202.00181078
843,6791184.0
2054,82454758.59325287
2,3, 7, 3, 1, 5, 0.00,60.00,Tuesday
74,89373453.28639427
110,3861201.791338584
542,44533202.00181078
843,6791184.0
2054,89373453.28639427
2,3, 7, 3, 1, 6, 0.00,60.00,Tuesday
74,119479977.43702874
110,8940070.17026987
542,55180531.87831212
843,6791184.0
2054,119479977.43702872
2,3, 7, 3, 1, 7, 0.00,60.00,Tuesday
74,199753993.43679444
110,31053524.884430559
542,95796493.41677365
843,6791184.0
2054,199753993.4367944
2,3, 7, 3, 1, 8, 0.00,60.00,Tuesday
74,391285799.5911086
110,93124323.85391507
542,204227663.7591693
843,6791184.0
2054,391285799.5911086
2,3, 7, 3, 1, 9, 0.00,60.00,Tuesday
74,383258214.89259997
110,93124323.85391507
542,174055806.61631219
843,6791184.0
2054,383258214.89259997
2,3, 7, 3, 1,10, 0.00,60.00,Tuesday
74,387080301.95471146
110,93124323.85391507
542,167093070.35257594
843,6791184.0
2054,387080301.9547115
2,3, 7, 3, 1,11, 0.00,60.00,Tuesday
74,408168343.19590416
110,93124323.85391507
542,174055806.61631219
843,16008316.84736405
2054,408168343.19590428
2,3, 7, 3, 1,12, 0.00,60.00,Tuesday
74,415974871.7163151
110,93124323.85391507
542,177667514.30607478
843,25948509.428709967
2054,415974871.71631518
2,3, 7, 3, 1,13, 0.00,60.00,Tuesday
74,431106430.4871574
110,93124323.85391507
542,179858086.8360924
843,25733663.792497159
2054,431106430.48715737
2,3, 7, 3, 1,14, 0.00,60.00,Tuesday
74,421184075.9752861
110,93124323.85391507
542,167093070.35257594
843,15563801.809441563
2054,421184075.9752861
2,3, 7, 3, 1,15, 0.00,60.00,Tuesday
74,436229295.9551325
110,93124323.85391507
542,167093070.35257594
843,15537993.07487102
2054,436229295.9551325
2,3, 7, 3, 1,16, 0.00,60.00,Tuesday
74,456006488.2832842
110,93124323.85391507
542,177537174.74818034
843,20466472.832990339
2054,456006488.2832842
2,3, 7, 3, 1,17, 0.00,60.00,Tuesday
74,344935601.4190365
110,51735735.47439728
542,140923939.57316489
843,15328135.546039066
2054,344935601.41903647
2,3, 7, 3, 1,18, 0.00,60.00,Tuesday
74,215409740.7433355
110,31041441.284638365
542,69106004.40578464
843,6791184.0
2054,215409740.74333553
2,3, 7, 3, 1,19, 0.00,60.00,Tuesday
74,201828903.89567525
110,31515175.823303485
542,59822356.05413629
843,6791184.0
2054,201828903.89567528
2,3, 7, 3, 1,20, 0.00,60.00,Tuesday
74,186371357.3536402
110,25131182.776453578
542,59822356.05413629
843,10910731.501372472
2054,186371357.3536402
2,3, 7, 3, 1,21, 0.00,60.00,Tuesday
74,179797242.01112578
110,26303943.895732467
542,55180531.87831212
843,6791184.0
2054,179797242.0111258
2,3, 7, 3, 1,22, 0.00,60.00,Tuesday
74,112307396.99724666
110,13151971.947866233
542,55180531.87831212
843,6791184.0
2054,112307396.99724666
2,3, 7, 3, 1,23, 0.00,60.00,Tuesday
74,97597160.10309524
110,6575985.9739331169
542,55180531.87831212
843,6791184.0
2054,97597160.10309524
2,3, 7, 3, 1,24, 0.00,60.00,Tuesday
74,97967482.75768137
110,4802369.727932371
542,44533202.00181078
843,6791184.0
2054,97967482.75768137
2,4, 7, 4, 1, 1, 0.00,60.00,Holiday
74,94951588.92168272
110,3861201.791338584
542,33399901.5013581
843,6791184.0
2054,94951588.92168272
2,4, 7, 4, 1, 2, 0.00,60.00,Holiday
74,94157975.18552499
110,3861201.791338584
542,33399901.5013581
843,6791184.0
2054,94157975.18552499
2,4, 7, 4, 1, 3, 0.00,60.00,Holiday
74,76502778.28733921
110,3861201.791338584
542,33399901.5013581
843,6791184.0
2054,76502778.28733921
2,4, 7, 4, 1, 4, 0.00,60.00,Holiday
74,89338799.8183733
110,3861201.791338584
542,33399901.5013581
843,6791184.0
2054,89338799.8183733
2,4, 7, 4, 1, 5, 0.00,60.00,Holiday
74,88335014.16009146
110,3861201.791338584
542,33399901.5013581
843,6791184.0
2054,88335014.16009146
2,4, 7, 4, 1, 6, 0.00,60.00,Holiday
74,74763068.94440644
110,4952685.309052257
542,41385398.90873409
843,6791184.0
2054,74763068.94440644
2,4, 7, 4, 1, 7, 0.00,60.00,Holiday
74,107856523.69153062
110,5179615.347335821
542,41385398.90873409
843,6791184.0
2054,107856523.69153062
2,4, 7, 4, 1, 8, 0.00,60.00,Holiday
74,120135323.80261106
110,5173573.547439723
542,41385398.90873409
843,6791183.999999999
2054,120135323.80261107
2,4, 7, 4, 1, 9, 0.00,60.00,Holiday
74,106596706.13338937
110,5173573.547439723
542,41385398.90873409
843,6791184.0
2054,106596706.13338937
2,4, 7, 4, 1,10, 0.00,60.00,Holiday
74,121273065.13294493
110,5173573.547439723
542,41385398.90873409
843,6791184.0
2054,121273065.13294493
2,4, 7, 4, 1,11, 0.00,60.00,Holiday
74,129551136.535186
110,5173573.547439723
542,41385398.90873409
843,6791184.0
2054,129551136.53518597
2,4, 7, 4, 1,12, 0.00,60.00,Holiday
74,89939812.16619987
110,5173573.547439723
542,41385398.90873409
843,6791184.0
2054,89939812.16619987
2,4, 7, 4, 1,13, 0.00,60.00,Holiday
74,108968768.73818499
110,5173573.547439723
542,41385398.90873409
843,6791184.0
2054,108968768.73818498
2,4, 7, 4, 1,14, 0.00,60.00,Holiday
74,122420933.19265923
110,5173573.547439723
542,41385398.90873409
843,6791184.0
2054,122420933.19265923
2,4, 7, 4, 1,15, 0.00,60.00,Holiday
74,107193364.4397518
110,5173573.547439723
542,41385398.90873409
843,6791184.0
2054,107193364.43975179
2,4, 7, 4, 1,16, 0.00,60.00,Holiday
74,112681836.81914844
110,5173573.547439723
542,41385398.90873409
843,6791184.0
2054,112681836.81914844
2,4, 7, 4, 1,17, 0.00,60.00,Holiday
74,111294197.00550218
110,5173573.547439723
542,41385398.90873409
843,6791184.0
2054,111294197.00550217
2,4, 7, 4, 1,18, 0.00,60.00,Holiday
74,81479140.43452499
110,4343235.864706293
542,33399901.5013581
843,6791184.0
2054,81479140.43452499
2,4, 7, 4, 1,19, 0.00,60.00,Holiday
74,60355975.22021534
110,3844743.741029627
542,33399901.5013581
843,6791184.0
2054,60355975.22021535
2,4, 7, 4, 1,20, 0.00,60.00,Holiday
74,71471875.43789801
110,3861201.791338584
542,33399901.5013581
843,6791184.0
2054,71471875.43789801
2,4, 7, 4, 1,21, 0.00,60.00,Holiday
74,78808782.63270903
110,3861201.791338584
542,33399901.5013581
843,6791184.0
2054,78808782.63270903
2,4, 7, 4, 1,22, 0.00,60.00,Holiday
74,71433099.09647757
110,3861201.791338584
542,33399901.5013581
843,6791184.0
2054,71433099.09647756
2,4, 7, 4, 1,23, 0.00,60.00,Holiday
74,80951307.34396956
110,3861201.791338584
542,33399901.5013581
843,6791184.0
2054,80951307.34396956
2,4, 7, 4, 1,24, 0.00,60.00,Holiday
74,110226441.04256495
110,3861201.791338584
542,33399901.5013581
843,6791184.0
2054,110226441.04256496
2,5, 7, 5, 1, 1, 0.00,60.00,Thursday
74,94959249.40928051
110,3861201.791338584
542,44533202.00181078
843,6791184.0
2054,94959249.40928051
2,5, 7, 5, 1, 2, 0.00,60.00,Thursday
74,110456032.0623742
110,3861201.791338584
542,44533202.00181078
843,6791184.0
2054,110456032.0623742
2,5, 7, 5, 1, 3, 0.00,60.00,Thursday
74,111181264.00426707
110,3861201.791338584
542,44533202.00181078
843,6791184.0
2054,111181264.00426707
2,5, 7, 5, 1, 4, 0.00,60.00,Thursday
74,92043386.91466487
110,3861201.791338584
542,44533202.00181078
843,6791184.0
2054,92043386.91466487
2,5, 7, 5, 1, 5, 0.00,60.00,Thursday
74,106964826.74788764
110,3861201.791338584
542,44533202.00181078
843,6791184.0
2054,106964826.74788763
2,5, 7, 5, 1, 6, 0.00,60.00,Thursday
74,188152520.69749598
110,9461594.132078944
542,55180531.87831212
843,6791184.0
2054,188152520.697496
2,5, 7, 5, 1, 7, 0.00,60.00,Thursday
74,247368760.04178895
110,31358238.039180656
542,95796493.41677365
843,6791184.0
2054,247368760.0417889
2,5, 7, 5, 1, 8, 0.00,60.00,Thursday
74,408965434.9653686
110,93124323.85391507
542,204227663.7591693
843,6791184.0
2054,408965434.9653686
2,5, 7, 5, 1, 9, 0.00,60.00,Thursday
74,406382169.1835346
110,93124323.85391507
542,174055806.61631219
843,6791184.0
2054,406382169.1835346
2,5, 7, 5, 1,10, 0.00,60.00,Thursday
74,437431523.7201251
110,93124323.85391507
542,167093070.35257594
843,6791184.0
2054,437431523.7201251
2,5, 7, 5, 1,11, 0.00,60.00,Thursday
74,470205977.46715679
110,93124323.85391507
542,174055806.61631219
843,11396528.22363925
2054,470205977.4671568
2,5, 7, 5, 1,12, 0.00,60.00,Thursday
74,471543406.5191376
110,93124323.85391507
542,177667514.30607478
843,25917668.58088022
2054,471543406.5191377
2,5, 7, 5, 1,13, 0.00,60.00,Thursday
74,480072520.2562336
110,93124323.85391507
542,179858086.8360924
843,25720551.429844224
2054,480072520.2562336
2,5, 7, 5, 1,14, 0.00,60.00,Thursday
74,464002147.6356382
110,93124323.85391507
542,167093070.35257594
843,15574845.990556904
2054,464002147.6356381
2,5, 7, 5, 1,15, 0.00,60.00,Thursday
74,481354165.8697599
110,93124323.85391507
542,167093070.35257594
843,17347065.546275215
2054,481354165.8697598
2,5, 7, 5, 1,16, 0.00,60.00,Thursday
74,516598206.5975946
110,93124323.85391507
542,177537174.74818034
843,21349695.531145328
2054,516598206.5975945
2,5, 7, 5, 1,17, 0.00,60.00,Thursday
74,386725772.88273629
110,51735735.47439728
542,140923939.57316489
843,12700405.803180274
2054,386725772.88273629
2,5, 7, 5, 1,18, 0.00,60.00,Thursday
74,242321195.54627989
110,31422515.85087426
542,69106004.40578464
843,10990396.9983314
2054,242321195.54627986
2,5, 7, 5, 1,19, 0.00,60.00,Thursday
74,236386755.8901024
110,32567145.920741667
542,59822356.05413629
843,6791184.0
2054,236386755.8901024
2,5, 7, 5, 1,20, 0.00,60.00,Thursday
74,212215073.42183353
110,25961161.763444246
542,59822356.05413629
843,6791184.0
2054,212215073.42183353
2,5, 7, 5, 1,21, 0.00,60.00,Thursday
74,202340424.27995289
110,26303943.895732467
542,55180531.87831212
843,6791184.0
2054,202340424.27995289
2,5, 7, 5, 1,22, 0.00,60.00,Thursday
74,110721128.53369534
110,13151971.947866233
542,55180531.87831212
843,6791184.0
2054,110721128.53369533
2,5, 7, 5, 1,23, 0.00,60.00,Thursday
74,103899012.45018266
110,6575985.9739331169
542,55180531.87831212
843,6791184.0
2054,103899012.45018265
2,5, 7, 5, 1,24, 0.00,60.00,Thursday
74,96796766.99124328
110,4802369.727932371
542,44533202.00181078
843,6791184.0
2054,96796766.99124328
2,6, 7, 6, 1, 1, 0.00,60.00,Friday
74,105870801.58797008
110,3861201.791338584
542,44533202.00181078
843,6791184.0
2054,105870801.58797007
2,6, 7, 6, 1, 2, 0.00,60.00,Friday
74,104103150.91732094
110,3861201.791338584
542,44533202.00181078
843,6791184.0
2054,104103150.91732094
2,6, 7, 6, 1, 3, 0.00,60.00,Friday
74,81870282.37705216
110,3861201.791338584
542,44533202.00181078
843,6791184.0
2054,81870282.37705216
2,6, 7, 6, 1, 4, 0.00,60.00,Friday
74,92046960.43130899
110,3861201.791338584
542,44533202.00181078
843,6791184.0
2054,92046960.431309
2,6, 7, 6, 1, 5, 0.00,60.00,Friday
74,91033166.61060399
110,3861201.791338584
542,44533202.00181078
843,6791184.0
2054,91033166.61060399
2,6, 7, 6, 1, 6, 0.00,60.00,Friday
74,119986861.88429876
110,8948125.903464664
542,55180531.87831212
843,6791184.0
2054,119986861.88429874
2,6, 7, 6, 1, 7, 0.00,60.00,Friday
74,194654649.2966197
110,31053524.884430559
542,95796493.41677365
843,6791184.0
2054,194654649.2966197
2,6, 7, 6, 1, 8, 0.00,60.00,Friday
74,352516092.81201389
110,93124323.85391507
542,204227663.7591693
843,6791184.0
2054,352516092.81201377
2,6, 7, 6, 1, 9, 0.00,60.00,Friday
74,345745687.83838799
110,93124323.85391507
542,174055806.61631219
843,6791184.0
2054,345745687.83838799
2,6, 7, 6, 1,10, 0.00,60.00,Friday
74,348018553.97494277
110,93124323.85391507
542,167093070.35257594
843,6791184.0
2054,348018553.9749427
2,6, 7, 6, 1,11, 0.00,60.00,Friday
74,366819753.91338327
110,93124323.85391507
542,174055806.61631219
843,16002306.242062029
2054,366819753.9133832
2,6, 7, 6, 1,12, 0.00,60.00,Friday
74,362232240.5133037
110,93124323.85391507
542,177667514.30607478
843,26628098.707378754
2054,362232240.51330378
2,6, 7, 6, 1,13, 0.00,60.00,Friday
74,376166639.1271665
110,93124323.85391507
542,179858086.8360924
843,24992740.59580688
2054,376166639.1271665
2,6, 7, 6, 1,14, 0.00,60.00,Friday
74,365619570.151098
110,93124323.85391507
542,167093070.35257594
843,16503932.204311369
2054,365619570.151098
2,6, 7, 6, 1,15, 0.00,60.00,Friday
74,377017848.4395765
110,93124323.85391507
542,167093070.35257594
843,17284266.798640036
2054,377017848.4395765
2,6, 7, 6, 1,16, 0.00,60.00,Friday
74,394087821.8284155
110,93124323.85391507
542,177537174.74818034
843,20870423.22997546
2054,394087821.8284155
2,6, 7, 6, 1,17, 0.00,60.00,Friday
74,296848384.5896864
110,51735735.47439728
542,140923939.57316489
843,12338283.045729123
2054,296848384.58968648
2,6, 7, 6, 1,18, 0.00,60.00,Friday
74,188952644.06441013
110,31041441.284638365
542,69106004.40578464
843,10983267.685569939
2054,188952644.06441013
2,6, 7, 6, 1,19, 0.00,60.00,Friday
74,179665177.98331178
110,31515175.823303485
542,59822356.05413629
843,6791184.0
2054,179665177.98331178
2,6, 7, 6, 1,20, 0.00,60.00,Friday
74,156945609.8172388
110,25131182.776453578
542,59822356.05413629
843,6791184.0
2054,156945609.8172388
2,6, 7, 6, 1,21, 0.00,60.00,Friday
74,163766840.2936442
110,26303943.895732467
542,55180531.87831212
843,6791184.0
2054,163766840.2936442
2,6, 7, 6, 1,22, 0.00,60.00,Friday
74,106251032.39288013
110,13151971.947866233
542,55180531.87831212
843,6791184.0
2054,106251032.39288011
2,6, 7, 6, 1,23, 0.00,60.00,Friday
74,87659533.71957255
110,6575985.9739331169
542,55180531.87831212
843,6791184.0
2054,87659533.71957253
2,6, 7, 6, 1,24, 0.00,60.00,Friday
74,90905044.43560478
110,4802369.727932371
542,44533202.00181078
843,6791184.0
2054,90905044.43560475
2,7, 7, 7, 1, 1, 0.00,60.00,Saturday
74,84521752.87357539
110,3861201.791338584
542,33399901.5013581
843,6791184.0
2054,84521752.87357539
2,7, 7, 7, 1, 2, 0.00,60.00,Saturday
74,85940788.28939948
110,3861201.791338584
542,33399901.5013581
843,6791184.0
2054,85940788.28939948
2,7, 7, 7, 1, 3, 0.00,60.00,Saturday
74,71759835.14632803
110,3861201.791338584
542,33399901.5013581
843,6791184.0
2054,71759835.14632803
2,7, 7, 7, 1, 4, 0.00,60.00,Saturday
74,82633780.84714557
110,3861201.791338584
542,33399901.5013581
843,6791184.0
2054,82633780.84714557
2,7, 7, 7, 1, 5, 0.00,60.00,Saturday
74,81101185.33154209
110,3861201.791338584
542,33399901.5013581
843,6791184.0
2054,81101185.3315421
2,7, 7, 7, 1, 6, 0.00,60.00,Saturday
74,120718015.43866886
110,8967214.076468662
542,55180531.87831212
843,6791184.0
2054,120718015.43866885
2,7, 7, 7, 1, 7, 0.00,60.00,Saturday
74,142208139.0625199
110,10359230.694671642
542,73747828.58160882
843,6791184.0
2054,142208139.06251995
2,7, 7, 7, 1, 8, 0.00,60.00,Saturday
74,168719105.26990778
110,31041441.284638365
542,85222049.46327476
843,6791184.0
2054,168719105.26990778
2,7, 7, 7, 1, 9, 0.00,60.00,Saturday
74,202929553.7131958
110,31041441.284638365
542,93345241.77096707
843,6791184.0
2054,202929553.7131958
2,7, 7, 7, 1,10, 0.00,60.00,Saturday
74,202945353.8166393
110,31041441.284638365
542,89863873.63909894
843,6791184.0
2054,202945353.81663937
2,7, 7, 7, 1,11, 0.00,60.00,Saturday
74,217040768.00664414
110,31041441.284638365
542,97987065.94679125
843,6791184.0
2054,217040768.00664414
2,7, 7, 7, 1,12, 0.00,60.00,Saturday
74,182462430.7161458
110,15520720.642319182
542,72652542.31660003
843,6791184.0
2054,182462430.71614585
2,7, 7, 7, 1,13, 0.00,60.00,Saturday
74,177419945.95767487
110,15520720.642319182
542,63368893.96495168
843,6791184.0
2054,177419945.95767484
2,7, 7, 7, 1,14, 0.00,60.00,Saturday
74,169731071.50463046
110,15520720.642319182
542,57566613.74517146
843,6791184.0
2054,169731071.50463046
2,7, 7, 7, 1,15, 0.00,60.00,Saturday
74,161113130.64954946
110,15520720.642319182
542,52924789.569347288