Program Version,EnergyPlus, Version 9.1.0-08d2e308bb, YMD=2019.06.19 08:24
1,5,Environment Title[],Latitude[deg],Longitude[deg],Time Zone[],Elevation[m]
2,8,Day of Simulation[],Month[],Day of Month[],DST Indicator[1=yes 0=no],Hour[],StartMinute[],EndMinute[],DayType
3,5,Cumulative Day of Simulation[],Month[],Day of Month[],DST Indicator[1=yes 0=no],DayType  ! When Daily Report Variables Requested
4,2,Cumulative Days of Simulation[],Month[]  ! When Monthly Report Variables Requested
5,1,Cumulative Days of Simulation[] ! When Run Period Report Variables Requested
6,1,Calendar Year of Simulation[] ! When Annual Report Variables Requested
990,1,CORE_BOTTOM,Zone Mean Air Temperature [C] !TimeStep
991,1,TOPFLOOR_PLENUM,Zone Mean Air Temperature [C] !TimeStep
992,1,MIDFLOOR_PLENUM,Zone Mean Air Temperature [C] !TimeStep
993,1,FIRSTFLOOR_PLENUM,Zone Mean Air Temperature [C] !TimeStep
994,1,CORE_MID,Zone Mean Air Temperature [C] !TimeStep
995,1,CORE_TOP,Zone Mean Air Temperature [C] !TimeStep
996,1,PERIMETER_TOP_ZN_3,Zone Mean Air Temperature [C] !TimeStep
997,1,PERIMETER_TOP_ZN_2,Zone Mean Air Temperature [C] !TimeStep
998,1,PERIMETER_TOP_ZN_1,Zone Mean Air Temperature [C] !TimeStep
999,1,PERIMETER_TOP_ZN_4,Zone Mean Air Temperature [C] !TimeStep
1000,1,PERIMETER_BOT_ZN_3,Zone Mean Air Temperature [C] !TimeStep
1001,1,PERIMETER_BOT_ZN_2,Zone Mean Air Temperature [C] !TimeStep
1002,1,PERIMETER_BOT_ZN_1,Zone Mean Air Temperature [C] !TimeStep
1003,1,PERIMETER_BOT_ZN_4,Zone Mean Air Temperature [C] !TimeStep
1004,1,PERIMETER_MID_ZN_3,Zone Mean Air Temperature [C] !TimeStep
1005,1,PERIMETER_MID_ZN_2,Zone Mean Air Temperature [C] !TimeStep
1006,1,PERIMETER_MID_ZN_1,Zone Mean Air Temperature [C] !TimeStep
1007,1,PERIMETER_MID_ZN_4,Zone Mean Air Temperature [C] !TimeStep
2215,1,SETPOINT_CUSTOMIZE,Schedule Value [] !TimeStep
2439,1,PERIMETER_TOP_ZN_3 VAV BOX OUTLET NODE,System Node Temperature [C] !TimeStep
2440,1,PERIMETER_TOP_ZN_3 VAV BOX OUTLET NODE,System Node Mass Flow Rate [kg/s] !TimeStep
End of Data Dictionary
1,BUFFALO.NIAGARA.INTL.AP_NY_USA ANN HTG 99.6% CONDNS DB,  42.93, -78.73,  -5.00, 215.00
2,1, 1,21, 0, 1, 0.00,15.00,WinterDesignDay
990,19.792640929889605
991,14.797188914293584
992,17.360510132797736
993,18.044244059159145
994,18.64104442524197
995,17.659926834970827
996,21.546983277780336
997,15.627025380066959
998,15.630879473645125
999,15.627247625068352
1000,15.855007020917525
1001,15.715830424987694
1002,15.7824869777283
1003,15.654939731434935
1004,15.6134536730974
1005,15.613651480704146
1006,15.613831148901705
1007,15.614990079655208
2215,22.0
2439,58.7590235206233
2440,0.3193934813058286
2,1, 1,21, 0, 1,15.00,30.00,WinterDesignDay
990,19.7545310091476
991,14.782268479775226
992,17.307412030199445
993,18.013554005111894
994,18.510335443060606
995,17.560072009560864
996,21.98571805591692
997,15.601365775801494
998,15.6012055022143
999,15.601472673840743
1000,15.781583499215796
1001,15.638882223630617
1002,15.708122889128596
1003,15.577454835569617
1004,15.600300346398129
1005,15.600661121418586
1006,15.600465818225637
1007,15.600722488150943
2215,22.0
2439,58.34947769747187
2440,0.3193934813058286
2,1, 1,21, 0, 1,30.00,45.00,WinterDesignDay
990,19.709614440465825
991,14.169535133920258
992,17.318349965449607
993,17.973995824040434
994,18.634595322163347
995,17.617805482081569
996,18.53436915690959
997,14.424904908547753
998,14.434737574846782
999,14.384108879393493
1000,15.695650329875392
1001,15.54892717463427
1002,15.621051331485797
1003,15.486892512206599
1004,15.059483132420019
1005,14.964872462608977
1006,15.024953025418754
1007,14.92633737663432
2215,22.0
2439,14.255449509511074
2440,0.0
2,1, 1,21, 0, 1,45.00,60.00,WinterDesignDay
990,19.673216287226606
991,14.510648307073704
992,17.21788569287677
993,17.940857718654024
994,18.418687053213934
995,17.44218851162849
996,21.52560451208167
997,15.596676277735814
998,15.596930880829298
999,15.58998379342946
1000,15.625604141415055
1001,15.475458537844299
1002,15.550030847268355
1003,15.412930743860743
1004,15.621890420366898
1005,15.62062664794526
1006,15.621903289879925
1007,15.621727201737837
2215,22.0
2439,59.186401376244379
2440,0.3193934813058282
2,1, 1,21, 0, 2, 0.00,15.00,WinterDesignDay
990,19.646508427074936
991,14.527615688742884
992,17.179927891136289
993,17.914208359824813
994,18.325592527780178
995,17.36115498249432
996,21.9850975487129
997,15.599823072784912
998,15.599871725816547
999,15.599464904695817
1000,15.570169353234391
1001,15.417168504828389
1002,15.493812745201137
1003,15.354237865111536
1004,15.600498139430183
1005,15.601025343281675
1006,15.60075581663974
1007,15.601076157777364
2215,22.0
2439,59.13071775163508
2440,0.3193934813058286
2,1, 1,21, 0, 2,15.00,30.00,WinterDesignDay
990,19.613151619370215
991,13.922464719831586
992,17.199458777200076
993,17.879744360398449
994,18.472229981572906
995,17.423898533855707
996,18.484467706118119
997,14.245682920852185
998,14.221768416493874
999,14.184052730866334
1000,15.504235243426841
1001,15.347942322984962
1002,15.426929224990488
1003,15.284555489062278
1004,14.945839150559845
1005,14.844977309019362
1006,14.91021496677601
1007,14.805522475134163
2215,22.0
2439,14.007181076681818
2440,0.0
2,1, 1,21, 0, 2,30.00,45.00,WinterDesignDay
990,19.585047876980686
991,14.299882952274905
992,17.112568217744589
993,17.849715098114769
994,18.285871438806049
995,17.270468732829284
996,21.508352379956074
997,15.562148269537259
998,15.558921117016503
999,15.55661885134963
1000,15.448256232135617
1001,15.289194657373317
1002,15.370129455965449
1003,15.22542491470656
1004,15.627994683630018
1005,15.625937656566484
1006,15.627979562954291
1007,15.626983464753267
2215,22.0
2439,59.53274491354669
2440,0.3193934813058283
2,1, 1,21, 0, 2,45.00,60.00,WinterDesignDay
990,19.563362095333717
991,14.3376918283005
992,17.081572254126028
993,17.82484745230906
994,18.20576604792973
995,17.199723318215399
996,21.98459962262238
997,15.598098077139105
998,15.59843361560928
999,15.597692736799889
1000,15.402478223788546
1001,15.241099991876844
1002,15.32367602232766
1003,15.177010619386533
1004,15.600650079886709
1005,15.601325743053718
1006,15.600989308432938
1007,15.601377972439776
2215,22.0
2439,59.77348609876576
2440,0.3193934813058286
2,1, 1,21, 0, 3, 0.00,15.00,WinterDesignDay
990,19.506875793029978
991,13.73598437146508
992,17.09882151705171
993,17.788503926250806
994,18.355729239512656
995,17.260919453189609
996,18.44335677058803
997,14.176039366650125
998,14.208535535813862
999,14.148608327697831
1000,15.436768434121606
1001,15.324093585875606
1002,15.382627203593007
1003,15.280261817986219
1004,14.849474180061489
1005,14.74241944639888
1006,14.8124406198324
1007,14.701349839669672
2215,22.0
2439,13.813231082031578
2440,0.0
2,1, 1,21, 0, 3,15.00,30.00,WinterDesignDay
990,19.13422151923678
991,14.142749073588796
992,17.020519043647999
993,17.713071087230355
994,18.182831484287246
995,17.122870598790084
996,21.49369156961853
997,15.553659210897772
998,15.55611816445054
999,15.5515525946439
1000,15.605501896521025
1001,15.610389573353869
1002,15.608462595845222
1003,15.612778830175179
1004,15.63263667806402
1005,15.630045922089656
1006,15.632244745114335
1007,15.623113679702377
2215,22.0
2439,59.84302342243029
2440,0.31939348130582886
2,1, 1,21, 0, 3,30.00,45.00,WinterDesignDay
990,19.30046620359787
991,14.192755213003803
992,16.99373867044406
993,17.71701025012665
994,18.108508517259148
995,17.059278593890349
996,21.984178565861023
997,15.597683914322339
998,15.59833617323648
999,15.597473066955813
1000,15.393142022234083
1001,15.296871902289255
1002,15.348700770756456
1003,15.260182377497749
1004,15.600772213501238
1005,15.601583608490366
1006,15.601175378240918
1007,15.601219594623505
2215,22.0
2439,60.32680088040397
2440,0.3193934813058287
2,1, 1,21, 0, 3,45.00,60.00,WinterDesignDay
990,19.259887719295567
991,13.591180437934027
992,17.005217722563019
993,17.68064764677876
994,18.25634297793256
995,17.117169632019495
996,18.407115901058373
997,14.119138929398485
998,14.139701926961564
999,14.085084301701885
1000,15.46709154797264
1001,15.407363790158453
1002,15.440078370579223
1003,15.38547660236765
1004,14.764335485081416
1005,14.646247290629598
1006,14.721832216529246
1007,14.60673567440756
2215,22.0
2439,13.66838476793951
2440,0.0
2,1, 1,21, 0, 4, 0.00,15.00,WinterDesignDay
990,18.982735875174435
991,14.016281174888546
992,16.931249952544684
993,17.61294914608903
994,18.09153145314805
995,16.990928816586817
996,21.480942295314646
997,15.546697417142753
998,15.54796345956832
999,15.543922311064
1000,15.602451726282503
1001,15.603363347669067
1002,15.603008797838303
1003,15.603873181227831
1004,15.631452403623046
1005,15.604728235969855
1006,15.621322782919293
1007,15.598073632322962
2215,22.0
2439,60.102746976016927
2440,0.3193934813058286
2,1, 1,21, 0, 4,15.00,30.00,WinterDesignDay
990,19.170266910322558
991,14.074248734116715
992,16.90811592020186
993,17.61998728608215
994,18.020297588746766
995,16.932322061175844
996,21.983813869781519
997,15.597400071935189
998,15.598077598017202
999,15.597138812040545
1000,15.326843677466709
1001,15.231244991394071
1002,15.283007430240659
1003,15.195224973993693
1004,15.600759506454989
1005,15.600253127852787
1006,15.60081274908391
1007,15.599890993136397
2215,22.0
2439,60.81512736379101
2440,0.3193934813058286
2,1, 1,21, 0, 4,30.00,45.00,WinterDesignDay
990,18.88068553073061
991,13.471425193600185
992,16.91351290124975
993,17.548809683983206
994,18.164038219646199
995,16.98561532548395
996,18.374592673261835
997,14.046313534057206
998,14.09500610111242
999,14.019767946376938
1000,15.613952861467406
1001,15.6176023665323
1002,15.615972395072994
1003,15.61942146402815
1004,14.686137720141217
1005,14.562347787356007
1006,14.639590480514789
1007,14.516079811073391
2215,22.0
2439,13.548783974260634
2440,0.0
2,1, 1,21, 0, 4,45.00,60.00,WinterDesignDay
990,18.77228921393971
991,13.90916272564325
992,16.84311401349883
993,17.501418474223024
994,18.00527510558726
995,16.86900575006899
996,21.46941516013065
997,15.538246616935341
998,15.542382307633832
999,15.536234543712493
1000,15.600020781407118
1001,15.600052130033458
1002,15.600031522083585
1003,15.600057532209528
1004,15.605274332267117
1005,15.585437340584506
1006,15.598114511444928
1007,15.5774956276099
2215,22.0
2439,60.33914050886916
2440,0.3193934813058282
2,1, 1,21, 0, 5, 0.00,15.00,WinterDesignDay
990,19.018818594005965
991,13.972341446365779
992,16.82361977481591
993,17.518296356255286
994,17.936147800668306
995,16.814232759015846
996,21.98348539773486
997,15.59703865462737
998,15.597905584669068
999,15.596796424170265
1000,15.265705128508975
1001,15.168835389069024
1002,15.221311080899618
1003,15.132685382343976
1004,15.600124634097626
1005,15.599217815808015
1006,15.599922785402362
1007,15.598808188889919
2215,22.0
2439,61.26224100445717
2440,0.3193934813058286
2,1, 1,21, 0, 5,15.00,30.00,WinterDesignDay
990,18.775170649541069
991,13.367951905495517
992,16.822695041985044
993,17.460048613985078
994,18.074989864055337
995,16.862443072094405
996,18.34485565249001
997,14.00463481509006
998,14.044361207796845
999,13.972163522496546
1000,15.61759749366211
1001,15.621073856917877
1002,15.619592801455607
1003,15.6229142511979
1004,14.608304177120969
1005,14.464634751634712
1006,14.548004369109375
1007,14.409225277031105
2215,22.0
2439,13.445519947522833
2440,0.0
2,1, 1,21, 0, 5,30.00,45.00,WinterDesignDay
990,18.68886805613839
991,13.815337367291312
992,16.756108938918176
993,17.421369126594116
994,17.92135217954872
995,16.754279138330945
996,21.45880811047456
997,15.533053898912716
998,15.536309125147345
999,15.53044259366669
1000,15.600026239028802
1001,15.600062883613097
1002,15.600038943526169
1003,15.600068395889278
1004,15.587094540602849
1005,15.567398694960462
1006,15.577271836206809
1007,15.562455144188363
2215,22.0
2439,60.55777896036513
2440,0.31939348130582836
2,1, 1,21, 0, 5,45.00,60.00,WinterDesignDay
990,18.937502812389565
991,13.881696190865612
992,16.740360591368224
993,17.43473880922634
994,17.85390276894527
995,16.702726478714735
996,21.983184224855657
997,15.596825804739098
998,15.597715313512876
999,15.596543107066644
1000,15.21254751049776
1001,15.114178234346884
1002,15.16809391628363
1003,15.077857020412145
1004,15.599658662544494
1005,15.59826116448278
1006,15.599152469145139
1007,15.59800633946138
2215,22.0
2439,61.67793678488493
2440,0.3193934813058286
2,1, 1,21, 0, 6, 0.00,15.00,WinterDesignDay
990,18.708850608658176
991,13.275266042491385
992,16.732805651473869
993,17.517970270526317
994,17.98765316692155
995,16.74560262567292
996,18.31676199181504
997,13.949756737150543
998,13.989206216208684
999,13.914447097081906
1000,17.326542113685027
1001,17.311173363778548
1002,17.31998360278855
1003,17.306009765625246
1004,14.52744406347416
1005,14.37072904139585
1006,14.398752328889632
1007,14.355214958245915
2215,22.0
2439,13.353114674679864
2440,0.0
2,1, 1,21, 0, 6,15.00,30.00,WinterDesignDay
990,18.63222094892009
991,13.8945533806526
992,16.800430461022388
993,17.591415508798894
994,17.83940739550522
995,17.571923100524339
996,21.445290083644318
997,17.12439515946933
998,17.13111102182558
999,17.119348727760298
1000,17.599413967009157
1001,17.596364638054696
1002,17.59828795096997
1003,17.5960125618557
1004,17.19092807447423
1005,17.15936205611587
1006,17.1616767105888
1007,17.15992073840539
2215,22.0
2439,60.82587655720441
2440,0.31939348130582848
2,1, 1,21, 0, 6,30.00,45.00,WinterDesignDay
990,18.880356978759534
991,14.092768719461
992,16.90175868545628
993,17.48781664500386
994,17.782437907354404
995,17.599871636386763
996,21.912790372968094
997,17.59566250903947
998,17.596771564535545
999,17.59539091565128
1000,16.206049223962514
1001,16.119691676077975
1002,16.182360040532207
1003,16.085712405792003
1004,17.598199596717686
1005,17.59583289574318
1006,17.597105693408076
1007,17.595878246310656
2215,22.0
2439,64.43137774368054
2440,0.3193934813058287
2,1, 1,21, 0, 6,45.00,60.00,WinterDesignDay
990,18.66487645900265
991,13.42858236661544
992,16.780260202360773
993,17.564450832622208
994,17.918843431241418
995,17.241775806643465
996,18.29402185223491
997,15.101142661694288
998,15.11729653896244
999,15.069459208966693
1000,17.50304820479454
1001,17.490730139236317
1002,17.500183475694525
1003,17.48685621234821
1004,15.719134786693943
1005,15.617087026953206
1006,15.678150044180026
1007,15.585754986254529
2215,22.0
2439,13.514022559470409
2440,0.0
2,1, 1,21, 0, 7, 0.00,15.00,WinterDesignDay
990,19.57013649590279
991,14.479699810411557
992,17.253325349392168
993,17.974015613815074
994,19.342967179834358
995,19.164838067889737
996,21.520494551287248
997,18.807205004760069
998,18.821702957816659
999,18.801721855510995
1000,19.276131244231185
1001,19.244400359497509
1002,19.265902789339589
1003,19.244860720730367
1004,18.85242248951635
1005,18.793514389330505
1006,18.828825483175164
1007,18.792385848461906
2215,22.0
2439,56.71730299564641
2440,0.3193934813058285
2,1, 1,21, 0, 7,15.00,30.00,WinterDesignDay
990,19.599572374356389
991,14.873174373567107
992,17.574579028983295
993,18.17677233069626
994,19.59710493859383
995,19.54637319642859
996,21.964317278060557
997,19.419318066904159
998,19.44176302275619
999,19.41455867473494
1000,19.596625172692148
1001,19.571919395961094
1002,19.59536538682824
1003,19.573402413550519
1004,19.4632228224419
1005,19.40266967158837
1006,19.43680967832692
1007,19.40375181822901
2215,22.0
2439,60.19719554260742
2440,0.3193934813058287
2,1, 1,21, 0, 7,30.00,45.00,WinterDesignDay
990,19.599992791932629
991,15.27201092655045
992,17.806878168803608
993,18.3102700291721
994,19.599943898282839
995,19.59882961352752
996,21.998849448753434
997,19.592539991710014
998,19.5950323514407
999,19.591952529284215
1000,19.599945225268578
1001,19.598892240197786
1002,19.599886311733376
1003,19.598955490977944
1004,19.59724811884817
1005,19.591511055340719
1006,19.59506094586463
1007,19.591642193901977
2215,22.0
2439,55.795523840657427
2440,0.3193934813058286
2,1, 1,21, 0, 7,45.00,60.00,WinterDesignDay
990,19.60000397192804
991,15.810536176954907
992,18.146175667341688
993,18.502154102435236
994,19.600008083574573
995,19.59998745621398
996,22.000008875717719
997,19.599761179644014
998,19.59988239393182
999,19.599719436595956
1000,19.600040705145618
1001,19.600017441268116
1002,19.600036399043025
1003,19.600021068823087
1004,19.599986432498356
1005,19.599699475419585
1006,19.599891319865884
1007,19.59970991151074
2215,22.0
2439,53.58282753889551
2440,0.3193934813058286
2,1, 1,21, 0, 8, 0.00,15.00,WinterDesignDay
990,20.840244567700144
991,16.07118157696225
992,18.275029838782986
993,18.66274730181745
994,20.69774389805059
995,20.678671205827056
996,22.000089263825389
997,20.76848601478683
998,20.801353710707063
999,20.76415372336981
1000,20.73459373753191
1001,20.629448826236229
1002,20.71197571889833
1003,20.636373733672224
1004,20.76203986567726
1005,20.65713714776468
1006,20.729274354766475
1007,20.66504275025879
2215,22.0
2439,52.54667465152707
2440,0.3193934813058286
2,1, 1,21, 0, 8,15.00,30.00,WinterDesignDay
990,20.995746147791889
991,16.363647041078854
992,18.426656607043733
993,18.820661116390406
994,20.96382236583321
995,20.952883187770764
996,22.000157434470816
997,20.99087986053285
998,20.994095684075725
999,20.99021709537623
1000,20.984167710523605
1001,20.866038841679445
1002,20.94818966786178
1003,20.870743514024846
1004,20.99553747992161
1005,20.88814311808092
1006,20.968887466218516
1007,20.895663705640588
2215,22.0
2439,51.81088728263843
2440,0.3193934813058286
2,1, 1,21, 0, 8,30.00,45.00,WinterDesignDay
990,20.99991550571073
991,16.795127085659329
992,18.658360473893994
993,19.03792267801687
994,20.999245565047745
995,20.99904387167267
996,22.000173695004464
997,20.99986303144971
998,21.00000048362744
999,20.9998110830551
1000,20.999862520834797
1001,20.99492986728006
1002,20.998778921396807
1003,20.995129718045975
1004,21.000103596202714
1005,20.995459382647139
1006,20.999241645655326
1007,20.99582533393594
2215,22.0
2439,51.140680507971079
2440,0.3193934813058286
2,1, 1,21, 0, 8,45.00,60.00,WinterDesignDay
990,21.000039327406485
991,17.04783488041331
992,18.75069346567637
993,19.119782008290174
994,21.000053274178563
995,21.000071514647808
996,22.00023730667449
997,21.00032200578817
998,21.000250056176573
999,21.000313779049664
1000,21.00025797770545
1001,21.00021379729656
1002,21.000223836011356
1003,21.000220269378894
1004,21.000273518985929
1005,21.000219608939078
1006,21.000227183872608
1007,21.0002312206806
2215,22.0
2439,50.56391068689218
2440,0.3193934813058286
2,1, 1,21, 0, 9, 0.00,15.00,WinterDesignDay
990,21.00003509359064
991,17.184250015365128
992,18.757451602795674
993,19.122417765410057
994,21.000051189796783
995,21.000067974413406
996,22.000250403027918
997,21.0003434185469
998,21.00026250275158
999,21.000334651551375
1000,21.000279175280125
1001,21.00029843070084
1002,21.00024698747176
1003,21.000302363817739
1004,21.000297443601054
1005,21.00030362890076
1006,21.000246773920535
1007,21.000309555287186
2215,22.0
2439,50.08182490473377
2440,0.3193934813058286
2,1, 1,21, 0, 9,15.00,30.00,WinterDesignDay
990,21.00003057188714
991,17.291432324783359
992,18.76101923709383
993,19.123514622412804
994,21.000045728170926
995,21.000060682584935
996,22.000259561777637
997,21.00035280516949
998,21.000270708044785
999,21.00034267507224
1000,21.000298352452917
1001,21.000313849114737
1002,21.000258267842523
1003,21.00031770982069
1004,21.00032011044492
1005,21.000318186384506
1006,21.000256151272528
1007,21.000323827414456
2215,22.0
2439,49.679547657611568
2440,0.3193934813058286
2,1, 1,21, 0, 9,30.00,45.00,WinterDesignDay
990,21.00002889369946
991,17.38961585458084
992,18.78127149395987
993,19.14064990735783
994,21.000043825582826
995,21.000058348167007
996,22.00028480826739
997,21.000385467635863
998,21.00029511034746
999,21.00037452457354
1000,21.00032814303586
1001,21.000342396786647
1002,21.000281193269776
1003,21.00034662565226
1004,21.00035454439211
1005,21.000348101256088
1006,21.0002792284475
1007,21.00035423041828
2215,22.0
2439,49.364368334248997
2440,0.3193934813058286
2,1, 1,21, 0, 9,45.00,60.00,WinterDesignDay
990,21.00002821470385
991,17.471626327765298
992,18.805571920921407
993,19.1615269907835
994,21.00004322544338
995,21.000057541203224
996,22.000312809496604
997,21.000422319346709
998,21.00032220486787
999,21.00041066364111
1000,21.000359477206915
1001,21.000374143574633
1002,21.000306217839829
1003,21.00037879966666
1004,21.000390639840569
1005,21.00038184287863
1006,21.000305088562965
1007,21.000388558058835
2215,22.0
2439,49.1028665432186
2440,0.3193934813058286
2,1, 1,21, 0,10, 0.00,15.00,WinterDesignDay
990,21.000027174505907
991,17.535849039295966
992,18.825469666595045
993,19.1782227289588
994,21.000042169846059
995,21.00005588338906
996,22.00033201609405
997,21.000446216774419
998,21.000340458034903
999,21.000433649308225
1000,21.00038413276124
1001,21.00039585933282
1002,21.000324564225648
1003,21.00040082617665
1004,21.0004191929881
1005,21.00040440268813
1006,21.000323621558118
1007,21.00041159309013
2215,22.0
2439,48.88291632535294
2440,0.3193934813058286
2,1, 1,21, 0,10,15.00,30.00,WinterDesignDay
990,21.000025730238325
991,17.58718979731119
992,18.842028235183684
993,19.19178029184912
994,21.00004058093724
995,21.00005349218859
996,22.00034145507215
997,21.000455625125679
998,21.00034897416818
999,21.000442124405465
1000,21.000400489275049
1001,21.000405517767637
1002,21.000334854596617
1003,21.00041065732833
1004,21.000438393467954
1005,21.00041380006005
1006,21.000333372405608
1007,21.000421304711286
2215,22.0
2439,48.671741043563468
2440,0.3193934813058286
2,1, 1,21, 0,10,30.00,45.00,WinterDesignDay
990,21.000026113203064
991,17.62985823175609
992,18.858100579250978
993,19.204888864061596
994,21.000041617126308
995,21.00005470048353
996,22.000374835789026
997,21.000500703649278
998,21.00038128243333
999,21.00048641541701
1000,21.00043572656705
1001,21.00044409907645
1002,21.00036416993914
1003,21.00044975417247
1004,21.0004789348818
1005,21.000455284359416
1006,21.000364357438295
1007,21.000463500806437
2215,22.0
2439,48.50520940871504
2440,0.3193934813058286
2,1, 1,21, 0,10,45.00,60.00,WinterDesignDay
990,21.000026978087449
991,17.665722093440203
992,18.87448934918991
993,19.21830679085229
994,21.000043350230535
995,21.000056756869666
996,22.000414611029666
997,21.000554732997438
998,21.00041984705466
999,21.00053949936963
1000,21.00047684294427
1001,21.00049066439006
1002,21.00039912490224
1003,21.000496931763555
1004,21.00052596740453
1005,21.00050506037708
1006,21.000401291522317
1007,21.000514119723826
2215,22.0
2439,48.35731708077974
2440,0.3193934813058286
2,1, 1,21, 0,11, 0.00,15.00,WinterDesignDay
990,21.00002703341523
991,17.695497552166946
992,18.890740108174499
993,19.231615391010867
994,21.000043975128575
995,21.000057210459756
996,22.000443401973805
997,21.000591938139555
998,21.00044757162665
999,21.000575408760306
1000,21.00051069764455
1001,21.000524284051147
1002,21.00042617685202
1003,21.000531012166559
1004,21.000564584967884
1005,21.00053977942147
1006,21.00042890981871
1007,21.000549536724927
2215,22.0
2439,48.22606904973532
2440,0.3193934813058286
2,1, 1,21, 0,11,15.00,30.00,WinterDesignDay
990,21.00002634875282
991,17.720379973121714
992,18.906573899959889
993,19.24454507853339
994,21.000043565884448
995,21.000056323928388
996,22.00045900170355
997,21.00060935694608
998,21.000462290562476
999,21.00059144506512
1000,21.00053446162707
1001,21.000541735477556
1002,21.00044284830753
1003,21.000548727533198
1004,21.000591596916374
1005,21.000556400035437
1006,21.000444738309527
1007,21.00056662963149
2215,22.0
2439,48.113383082590519
2440,0.3193934813058286
2,1, 1,21, 0,11,30.00,45.00,WinterDesignDay
990,21.000025134560944
991,17.74161107903971
992,18.92207152932234
993,19.257163218018794
994,21.000042332260454
995,21.00005455433255
996,22.00045756834299
997,21.00060142629486
998,21.000460180225106
999,21.000582442572705
1000,21.00054297643436
1001,21.00053737386282
1002,21.000444894244838
1003,21.000544360396277
1004,21.00060122838267
1005,21.000549480804513
1006,21.00044460649142
1007,21.00055982564618
2215,22.0
2439,48.00272264842501
2440,0.3193934813058286
2,1, 1,21, 0,11,45.00,60.00,WinterDesignDay
990,21.000024476367284
991,17.759977281433416
992,18.937353130353995
993,19.26958426601819
994,21.000041755752556
995,21.00005391104101
996,22.000451453970464
997,21.000586609596899
998,21.000453306934735
999,21.00056714202827
1000,21.000544745771568
1001,21.000525914308299
1002,21.00044151063991
1003,21.0005327982074
1004,21.000603150312416
1005,21.000535760181497
1006,21.000439134032005
1007,21.000546039846733
2215,22.0
2439,47.89992484997353
2440,0.3193934813058286
2,1, 1,21, 0,12, 0.00,15.00,WinterDesignDay
990,21.000024838783135
991,17.77596778245325
992,18.95244990764579
993,19.281843007685685
994,21.00004248763903
995,21.000055123590589
996,22.000448834101705
997,21.000577226038808
998,21.000449652805079
999,21.000557823356656
1000,21.000546250585296
1001,21.000517893831483
1002,21.00043940674889
1003,21.000524705616859
1004,21.000604722381337
1005,21.00052678786503
1006,21.00043583666134
1007,21.000536977762275
2215,22.0
2439,47.80369484904942
2440,0.3193934813058286
2,1, 1,21, 0,12,15.00,30.00,WinterDesignDay
990,21.00002589920309
991,17.7896703104198
992,18.967273176734428
993,19.293873006086935
994,21.000044117336576
995,21.000057468871835
996,22.000450054694114
997,21.000573987115187
998,21.000449625530594
999,21.000554931848478
1000,21.000548705914075
1001,21.000514575486695
1002,21.00043955717894
1003,21.000521370631103
1004,21.000607390546145
1005,21.00052356901896
1006,21.00043561042351
1007,21.00053370153298
2215,22.0
2439,47.700783033975898
2440,0.3193934813058286
2,1, 1,21, 0,12,30.00,45.00,WinterDesignDay
990,21.00002815823132
991,17.801587205583098
992,18.981857671290955
993,19.30570033060437
994,21.00004744596124
995,21.00006187844978
996,22.00047156857179
997,21.00060107643062
998,21.000469261506873
999,21.00058233588478
1000,21.000567116134247
1001,21.000536842538716
1002,21.000456073199858
1003,21.000543933933114
1004,21.00062804440671
1005,21.00054840060622
1006,21.00045359685074
1007,21.00055885433517
2215,22.0
2439,47.61630443926564
2440,0.3193934813058286
2,1, 1,21, 0,12,45.00,60.00,WinterDesignDay
990,21.000030211200266
991,17.812292881796027
992,18.996283778586134
993,19.31738831367252
994,21.000050542345304
995,21.000065731016958
996,22.000497586848004
997,21.000635220482744
998,21.00049334336964
999,21.00061638679275
1000,21.000590598569894
1001,21.000566165767258
1002,21.000477317390318
1003,21.000573645393805
1004,21.000654332045234
1005,21.000580173801479
1006,21.000476388548589
1007,21.000591101501568
2215,22.0
2439,47.535105178266167
2440,0.3193934813058286
2,1, 1,21, 0,13, 0.00,15.00,WinterDesignDay
990,21.0000311800721
991,17.822069644157908
992,19.010567560276337
993,19.32895232144301
994,21.000052188341504
995,21.000067522366338
996,22.000515500508308
997,21.000657816712534
998,21.0005097525112
999,21.000638405034914
1000,21.000609670058915
1001,21.000586960701975
1002,21.000493380748286
1003,21.00059473044042
1004,21.00067551836133
1005,21.0006016279929
1006,21.000492818915388
1007,21.00061296426784
2215,22.0
2439,47.4571962826403
2440,0.3193934813058286
2,1, 1,21, 0,13,15.00,30.00,WinterDesignDay
990,21.00003131519417
991,17.83103104843131
992,19.024685252867756
993,19.34037626122219
994,21.000052692667816
995,21.0000678608627
996,22.00052449100296
997,21.00066753758221
998,21.00051766444394
999,21.00064734550611
1000,21.000622711427185
1001,21.00059732741044
1002,21.00050286683194
1003,21.000605256684535
1004,21.000689741574506
1005,21.000611131157667
1006,21.00050155382367
1007,21.00062274336148
2215,22.0
2439,47.39290278676602
2440,0.3193934813058286
2,1, 1,21, 0,13,30.00,45.00,WinterDesignDay
990,21.00003051441529
991,17.839276102278398
992,19.038619677957635
993,19.35164786813407
994,21.000051816424756
995,21.000066584247219
996,22.000514742615377
997,21.000649955152626
998,21.000507542884085
999,21.000629148752219
1000,21.000619927040288
1001,21.000584300899165
1002,21.00049687319622
1003,21.000592097673608
1004,21.00068604257725
1005,21.000595220361789
1006,21.000493285753917
1007,21.000606739614779
2215,22.0
2439,47.320751582808188
2440,0.3193934813058286
2,1, 1,21, 0,13,45.00,60.00,WinterDesignDay
990,21.000030004050186
991,17.846909861893914
992,19.052367426319777
993,19.362764928348509
994,21.00005122331205
995,21.000065931453564
996,22.000500259010104
997,21.000625480170073
998,21.00049274745349
999,21.00060455236364
1000,21.000610936748914
1001,21.000564244948003
1002,21.0004856848786
1003,21.0005718139087
1004,21.00067532958174
1005,21.000572488375434
1006,21.00047984634001
1007,21.00058374759738
2215,22.0
2439,47.25121577382364
2440,0.3193934813058286
2,1, 1,21, 0,14, 0.00,15.00,WinterDesignDay
990,21.00003043736596
991,17.854025266125498
992,19.065932125960587
993,19.37373085262842
994,21.0000518170846
995,21.00006697672786
996,22.00049130865023
997,21.000609186323979
998,21.0004830783513
999,21.00058865043429
1000,21.000603606182627
1001,21.000549957987649
1002,21.000477456835829
1003,21.000557361873964
1004,21.000666506524796
1005,21.000557024002395
1006,21.0004703836712
1007,21.00056804224976
2215,22.0
2439,47.18401704824755
2440,0.3193934813058286
2,1, 1,21, 0,14,15.00,30.00,WinterDesignDay
990,21.000031545613383
991,17.860697085689677
992,19.07931794531927
993,19.384549691751368
994,21.0000532722896
995,21.000069103406817
996,22.000488689676364
997,21.00060252897422
998,21.000479382927858
999,21.00058260145172
1000,21.000599792019274
1001,21.000543532357264
1002,21.000473680883706
1003,21.000550861981514
1004,21.00066164874638
1005,21.000550586621278
1006,21.00046626819368
1007,21.000561448074806
2215,22.0
2439,47.12249432525143
2440,0.3193934813058286
2,1, 1,21, 0,14,30.00,45.00,WinterDesignDay
990,21.000032483433505
991,17.866985440070044