Program Version,EnergyPlus-Windows-64 8.0.0.008, YMD=2018.11.12 22:51
1,5,Environment Title[],Latitude[deg],Longitude[deg],Time Zone[],Elevation[m]
2,6,Day of Simulation[],Month[],Day of Month[],DST Indicator[1=yes 0=no],Hour[],StartMinute[],EndMinute[],DayType
3,3,Cumulative Day of Simulation[],Month[],Day of Month[],DST Indicator[1=yes 0=no],DayType  ! When Daily Report Variables Requested
4,2,Cumulative Days of Simulation[],Month[]  ! When Monthly Report Variables Requested
5,1,Cumulative Days of Simulation[] ! When Run Period Report Variables Requested
8,1,PERIMETER_TOP_ZN_3,Zone Outdoor Air Drybulb Temperature [C] !Each Call
831,1,PERIMETER_TOP_ZN_3,Zone Mean Air Temperature [C] !Each Call
1912,1,CUSTOM_ZONE_CLGT_SETPOINT,Schedule Value [] !Each Call
2097,1,PERIMETER_TOP_ZN_3 VAV BOX OUTLET NODE,System Node Temperature [C] !Each Call
2098,1,PERIMETER_TOP_ZN_3 VAV BOX OUTLET NODE,System Node Mass Flow Rate [kg/s] !Each Call
End of Data Dictionary
1,MIAMI INTL AP ANN HTG 99.6% CONDNS DB,  25.82, -80.30,  -5.00,  11.00
2,1, 1,21, 0, 1, 0.00, 5.00,WinterDesignDay
2097,17.2714729692383
2098,1.91878307184189
2,1, 1,21, 0, 1, 5.00,10.00,WinterDesignDay
2097,16.22884813643
2098,1.91878307184189
2,1, 1,21, 0, 1,10.00,15.00,WinterDesignDay
2097,16.5269327933351
2098,1.91878307184189
2,1, 1,21, 0, 1, 0.00,15.00,WinterDesignDay
8,8.64932348607993
831,15.4900935800252
1912,30.
2,1, 1,21, 0, 1,15.00,30.00,WinterDesignDay
2097,16.5149272830776
2098,1.91878307184189
8,8.64932348607993
831,15.5928827781299
1912,30.
2,1, 1,21, 0, 1,30.00,33.75,WinterDesignDay
2097,14.4261422421281
2098,0.0
2,1, 1,21, 0, 1,33.75,37.50,WinterDesignDay
2097,14.2416793469335
2098,0.0
2,1, 1,21, 0, 1,37.50,41.25,WinterDesignDay
2097,14.037396791501
2098,0.0
2,1, 1,21, 0, 1,41.25,45.00,WinterDesignDay
2097,13.8530748814534
2098,0.0
2,1, 1,21, 0, 1,30.00,45.00,WinterDesignDay
8,8.64932348607993
831,14.6978439864208
1912,30.
2,1, 1,21, 0, 1,45.00,50.00,WinterDesignDay
2097,17.2757408983989
2098,1.91878307184189
2,1, 1,21, 0, 1,50.00,55.00,WinterDesignDay
2097,16.2298095695759
2098,1.91878307184189
2,1, 1,21, 0, 1,55.00,60.00,WinterDesignDay
2097,16.5287663215654
2098,1.91878307184189
2,1, 1,21, 0, 1,45.00,60.00,WinterDesignDay
8,8.64932348607993
831,15.489720660069
1912,30.
2,1, 1,21, 0, 2, 0.00,15.00,WinterDesignDay
2097,16.5185418903765
2098,1.91878307184189
8,8.64932348607993
831,15.5928591732599
1912,30.
2,1, 1,21, 0, 2,15.00,18.75,WinterDesignDay
2097,14.4244212191205
2098,0.0
2,1, 1,21, 0, 2,18.75,22.50,WinterDesignDay
2097,14.2397758490959
2098,0.0
2,1, 1,21, 0, 2,22.50,26.25,WinterDesignDay
2097,14.0353451480893
2098,0.0
2,1, 1,21, 0, 2,26.25,30.00,WinterDesignDay
2097,13.8508987352569
2098,0.0
2,1, 1,21, 0, 2,15.00,30.00,WinterDesignDay
8,8.64932348607993
831,14.6951787890046
1912,30.
2,1, 1,21, 0, 2,30.00,35.00,WinterDesignDay
2097,17.2796462802631
2098,1.91878307184189
2,1, 1,21, 0, 2,35.00,40.00,WinterDesignDay
2097,16.2306774754359
2098,1.91878307184189
2,1, 1,21, 0, 2,40.00,45.00,WinterDesignDay
2097,16.5304327951135
2098,1.91878307184189
2,1, 1,21, 0, 2,30.00,45.00,WinterDesignDay
8,8.64932348607993
831,15.4893770353835
1912,30.
2,1, 1,21, 0, 2,45.00,60.00,WinterDesignDay
2097,16.521879895136
2098,1.91878307184189
8,8.64932348607993
831,15.5928374696706
1912,30.
2,1, 1,21, 0, 3, 0.00, 3.75,WinterDesignDay
2097,14.4228284338574
2098,0.0
2,1, 1,21, 0, 3, 3.75, 7.50,WinterDesignDay
2097,14.2380138436823
2098,0.0
2,1, 1,21, 0, 3, 7.50,11.25,WinterDesignDay
2097,14.0334455705297
2098,0.0
2,1, 1,21, 0, 3,11.25,15.00,WinterDesignDay
2097,13.8488835995103
2098,0.0
2,1, 1,21, 0, 3, 0.00,15.00,WinterDesignDay
8,8.64932348607993
831,14.6927190731029
1912,30.
2,1, 1,21, 0, 3,15.00,20.00,WinterDesignDay
2097,17.2832366278112
2098,1.91878307184189
2,1, 1,21, 0, 3,20.00,25.00,WinterDesignDay
2097,16.23146718874
2098,1.91878307184189
2,1, 1,21, 0, 3,25.00,30.00,WinterDesignDay
2097,16.5319569825226
2098,1.91878307184189
2,1, 1,21, 0, 3,15.00,30.00,WinterDesignDay
8,8.64932348607993
831,15.4890594516274
1912,30.
2,1, 1,21, 0, 3,30.00,45.00,WinterDesignDay
2097,16.52496796422
2098,1.91878307184189
8,8.64932348607993
831,15.5928174479765
1912,30.
2,1, 1,21, 0, 3,45.00,48.75,WinterDesignDay
2097,14.4213521378549
2098,0.0
2,1, 1,21, 0, 3,48.75,52.50,WinterDesignDay
2097,14.2363805100284
2098,0.0
2,1, 1,21, 0, 3,52.50,56.25,WinterDesignDay
2097,14.0316842295375
2098,0.0
2,1, 1,21, 0, 3,56.25,60.00,WinterDesignDay
2097,13.8470148099208
2098,0.0
2,1, 1,21, 0, 3,45.00,60.00,WinterDesignDay
8,8.64932348607993
831,14.6904446845801
1912,30.
2,1, 1,21, 0, 4, 0.00, 5.00,WinterDesignDay
2097,17.2865458226672
2098,1.91878307184189
2,1, 1,21, 0, 4, 5.00,10.00,WinterDesignDay
2097,16.2321888638996
2098,1.91878307184189
2,1, 1,21, 0, 4,10.00,15.00,WinterDesignDay
2097,16.5333558046965
2098,1.91878307184189
2,1, 1,21, 0, 4, 0.00,15.00,WinterDesignDay
8,8.64932348607993
831,15.4887654377817
1912,30.
2,1, 1,21, 0, 4,15.00,30.00,WinterDesignDay
2097,16.5278282188675
2098,1.91878307184189
8,8.64932348607993
831,15.5927989390713
1912,30.
2,1, 1,21, 0, 4,30.00,33.75,WinterDesignDay
2097,14.4199814857225
2098,0.0
2,1, 1,21, 0, 4,33.75,37.50,WinterDesignDay
2097,14.2348638999026
2098,0.0
2,1, 1,21, 0, 4,37.50,41.25,WinterDesignDay
2097,14.0300483061533
2098,0.0
2,1, 1,21, 0, 4,41.25,45.00,WinterDesignDay
2097,13.8452788051893
2098,0.0
2,1, 1,21, 0, 4,30.00,45.00,WinterDesignDay
8,8.64932348607993
831,14.688338989342
1912,30.
2,1, 1,21, 0, 4,45.00,50.00,WinterDesignDay
2097,17.289601039584
2098,1.91878307184189
2,1, 1,21, 0, 4,50.00,55.00,WinterDesignDay
2097,16.2328502210483
2098,1.91878307184189
2,1, 1,21, 0, 4,55.00,60.00,WinterDesignDay
2097,16.5346424300553
2098,1.91878307184189
2,1, 1,21, 0, 4,45.00,60.00,WinterDesignDay
8,8.64932348607993
831,15.4884929298599
1912,30.
2,1, 1,21, 0, 5, 0.00,15.00,WinterDesignDay
2097,16.5304800049719
2098,1.91878307184189
8,8.64932348607993
831,15.5927818027304
1912,30.
2,1, 1,21, 0, 5,15.00,18.75,WinterDesignDay
2097,14.4187069377128
2098,0.0
2,1, 1,21, 0, 5,18.75,22.50,WinterDesignDay
2097,14.233453476641
2098,0.0
2,1, 1,21, 0, 5,22.50,26.25,WinterDesignDay
2097,14.0285265043262
2098,0.0
2,1, 1,21, 0, 5,26.25,30.00,WinterDesignDay
2097,13.8436636382987
2098,0.0
2,1, 1,21, 0, 5,15.00,30.00,WinterDesignDay
8,8.64932348607993
831,14.6863874939987
1912,30.
2,1, 1,21, 0, 5,30.00,35.00,WinterDesignDay
2097,17.2924254960965
2098,1.91878307184189
2,1, 1,21, 0, 5,35.00,40.00,WinterDesignDay
2097,16.23345760251
2098,1.91878307184189
2,1, 1,21, 0, 5,40.00,45.00,WinterDesignDay
2097,16.5358278736278
2098,1.91878307184189
2,1, 1,21, 0, 5,30.00,45.00,WinterDesignDay
8,8.64932348607993
831,15.4882401169082
1912,30.
2,1, 1,21, 0, 5,45.00,60.00,WinterDesignDay
2097,16.5329406477002
2098,1.91878307184189
8,8.64932348607993
831,15.5927659176693
1912,30.
2,1, 1,21, 0, 6, 0.00, 3.75,WinterDesignDay
2097,14.4175201328185
2098,0.0
2,1, 1,21, 0, 6, 3.75, 7.50,WinterDesignDay
2097,14.2321400015384
2098,0.0
2,1, 1,21, 0, 6, 7.50,11.25,WinterDesignDay
2097,14.0271089197053
2098,0.0
2,1, 1,21, 0, 6,11.25,15.00,WinterDesignDay
2097,13.8421588346679
2098,0.0
2,1, 1,21, 0, 6, 0.00,15.00,WinterDesignDay
8,8.64932348607993
831,14.6845772552228
1912,30.
2,1, 1,21, 0, 6,15.00,20.00,WinterDesignDay
2097,17.2950396327111
2098,1.91878307184189
2,1, 1,21, 0, 6,20.00,25.00,WinterDesignDay
2097,16.2340164255588
2098,1.91878307184189
2,1, 1,21, 0, 6,25.00,30.00,WinterDesignDay
2097,16.5369216819781
2098,1.91878307184189
2,1, 1,21, 0, 6,15.00,30.00,WinterDesignDay
8,8.64932348607993
831,15.488005374567
1912,30.
2,1, 1,21, 0, 6,30.00,45.00,WinterDesignDay
2097,16.5352258167748
2098,1.91878307184189
8,8.64932348607993
831,15.5927511766272
1912,30.
2,1, 1,21, 0, 6,45.00,48.75,WinterDesignDay
2097,14.4164136930934
2098,0.0
2,1, 1,21, 0, 6,48.75,52.50,WinterDesignDay
2097,14.2309153239137
2098,0.0
2,1, 1,21, 0, 6,52.50,56.25,WinterDesignDay
2097,14.0257868140401
2098,0.0
2,1, 1,21, 0, 6,56.25,60.00,WinterDesignDay
2097,13.8407551536652
2098,0.0
2,1, 1,21, 0, 6,45.00,60.00,WinterDesignDay
8,8.64932348607993
831,14.6828965920318
1912,30.
2,1, 1,21, 0, 7, 0.00, 5.00,WinterDesignDay
2097,17.1998899823688
2098,1.91878307184189
2,1, 1,21, 0, 7, 5.00,10.00,WinterDesignDay
2097,16.1394367572802
2098,1.91878307184189
2,1, 1,21, 0, 7,10.00,15.00,WinterDesignDay
2097,16.4399971551347
2098,1.91878307184189
2,1, 1,21, 0, 7, 0.00,15.00,WinterDesignDay
8,8.64932348607993
831,15.4872208162787
1912,16.
2,1, 1,21, 0, 7,15.00,22.50,WinterDesignDay
2097,17.0098685280386
2098,1.91878307184189
2,1, 1,21, 0, 7,22.50,30.00,WinterDesignDay
2097,16.5419127216851
2098,1.91878307184189
2,1, 1,21, 0, 7,15.00,30.00,WinterDesignDay
8,8.64932348607993
831,15.5775444785436
1912,16.
2,1, 1,21, 0, 7,30.00,45.00,WinterDesignDay
2097,16.8573675131819
2098,1.91878307184189
8,8.64932348607993
831,15.5958358538925
1912,16.
2,1, 1,21, 0, 7,45.00,60.00,WinterDesignDay
2097,16.7616411667209
2098,1.91878307184189
8,8.64932348607993
831,15.5983530091808
1912,16.
2,1, 1,21, 0, 8, 0.00,15.00,WinterDesignDay
2097,16.7402237950456
2098,1.91878307184189
8,8.64932348607993
831,15.5993538202278
1912,16.
2,1, 1,21, 0, 8,15.00,30.00,WinterDesignDay
2097,16.7213234012767
2098,1.91878307184189
8,8.64932348607993
831,15.5997514163966
1912,16.
2,1, 1,21, 0, 8,30.00,45.00,WinterDesignDay
2097,16.7098048444567
2098,1.91878307184189
8,8.64932348607993
831,15.5999164812613
1912,16.
2,1, 1,21, 0, 8,45.00,60.00,WinterDesignDay
2097,16.700838620314
2098,1.91878307184189
8,8.64932348607993
831,15.5999858565847
1912,16.
2,1, 1,21, 0, 9, 0.00,15.00,WinterDesignDay
2097,16.693517672505
2098,1.91878307184189
8,8.64932348607993
831,15.6000126550174
1912,16.
2,1, 1,21, 0, 9,15.00,30.00,WinterDesignDay
2097,16.6849611155906
2098,1.91878307184189
8,8.64932348607993
831,15.6000222920915
1912,16.
2,1, 1,21, 0, 9,30.00,45.00,WinterDesignDay
2097,16.6800086584571
2098,1.91878307184189
8,8.64932348607993
831,15.6000326090931
1912,16.
2,1, 1,21, 0, 9,45.00,60.00,WinterDesignDay
2097,16.6756799690055
2098,1.91878307184189
8,8.64932348607993
831,15.6000402697962
1912,16.
2,1, 1,21, 0,10, 0.00,15.00,WinterDesignDay
2097,16.6718813311089
2098,1.91878307184189
8,8.64932348607993
831,15.6000425359704
1912,16.
2,1, 1,21, 0,10,15.00,30.00,WinterDesignDay
2097,16.6644340670144
2098,1.91878307184189
8,8.64932348607993
831,15.600042474911
1912,16.
2,1, 1,21, 0,10,30.00,45.00,WinterDesignDay
2097,16.6614232854696
2098,1.91878307184189
8,8.64932348607993
831,15.6000519021306
1912,16.
2,1, 1,21, 0,10,45.00,60.00,WinterDesignDay
2097,16.6586779725345
2098,1.91878307184189
8,8.64932348607993
831,15.6000604332828
1912,16.
2,1, 1,21, 0,11, 0.00,15.00,WinterDesignDay
2097,16.6561502249489
2098,1.91878307184189
8,8.64932348607993
831,15.600062294695
1912,16.
2,1, 1,21, 0,11,15.00,30.00,WinterDesignDay
2097,16.6551648555101
2098,1.91878307184189
8,8.64932348607993
831,15.6000614449356
1912,16.
2,1, 1,21, 0,11,30.00,45.00,WinterDesignDay
2097,16.652971835557
2098,1.91878307184189
8,8.64932348607993
831,15.6000591264216
1912,16.
2,1, 1,21, 0,11,45.00,60.00,WinterDesignDay
2097,16.6509151266082
2098,1.91878307184189
8,8.64932348607993
831,15.6000590320268
1912,16.
2,1, 1,21, 0,12, 0.00,15.00,WinterDesignDay
2097,16.6489731826775
2098,1.91878307184189
8,8.64932348607993
831,15.6000613580744
1912,16.
2,1, 1,21, 0,12,15.00,30.00,WinterDesignDay
2097,16.6444108784161
2098,1.91878307184189
8,8.64932348607993
831,15.600064002979
1912,16.
2,1, 1,21, 0,12,30.00,45.00,WinterDesignDay
2097,16.6426607146383
2098,1.91878307184189
8,8.64932348607993
831,15.6000716077539
1912,16.
2,1, 1,21, 0,12,45.00,60.00,WinterDesignDay
2097,16.6409773948283
2098,1.91878307184189
8,8.64932348607993
831,15.6000773127118
1912,16.
2,1, 1,21, 0,13, 0.00,15.00,WinterDesignDay
2097,16.6393566838685
2098,1.91878307184189
8,8.64932348607993
831,15.6000783504995
1912,16.
2,1, 1,21, 0,13,15.00,30.00,WinterDesignDay
2097,16.6398349526625
2098,1.91878307184189
8,8.64932348607993
831,15.6000777786943
1912,16.
2,1, 1,21, 0,13,30.00,45.00,WinterDesignDay
2097,16.6383256032855
2098,1.91878307184189
8,8.64932348607993
831,15.6000738676592
1912,16.
2,1, 1,21, 0,13,45.00,60.00,WinterDesignDay
2097,16.6368763649382
2098,1.91878307184189
8,8.64932348607993
831,15.600071891255
1912,16.
2,1, 1,21, 0,14, 0.00,15.00,WinterDesignDay
2097,16.635593606876
2098,1.91878307184189
8,8.64932348607993
831,15.6000733585901
1912,16.
2,1, 1,21, 0,14,15.00,30.00,WinterDesignDay
2097,16.6350168760663
2098,1.91878307184189
8,8.64932348607993
831,15.6000757438893
1912,16.
2,1, 1,21, 0,14,30.00,45.00,WinterDesignDay
2097,16.6338984984465
2098,1.91878307184189
8,8.64932348607993
831,15.6000756923496
1912,16.
2,1, 1,21, 0,14,45.00,60.00,WinterDesignDay
2097,16.6327081047358
2098,1.91878307184189
8,8.64932348607993
831,15.6000750545851
1912,16.
2,1, 1,21, 0,15, 0.00,15.00,WinterDesignDay
2097,16.6316499946982
2098,1.91878307184189
8,8.64932348607993
831,15.6000753345213
1912,16.
2,1, 1,21, 0,15,15.00,30.00,WinterDesignDay
2097,16.6329198332034
2098,1.91878307184189
8,8.64932348607993
831,15.6000760995841
1912,16.
2,1, 1,21, 0,15,30.00,45.00,WinterDesignDay
2097,16.6317071351084
2098,1.91878307184189
8,8.64932348607993
831,15.6000707963506
1912,16.
2,1, 1,21, 0,15,45.00,60.00,WinterDesignDay
2097,16.6306672938837
2098,1.91878307184189
8,8.64932348607993
831,15.6000663821598
1912,16.
2,1, 1,21, 0,16, 0.00,15.00,WinterDesignDay
2097,16.6296667168662
2098,1.91878307184189
8,8.64932348607993
831,15.6000663445092
1912,16.
2,1, 1,21, 0,16,15.00,30.00,WinterDesignDay
2097,16.6300111722826
2098,1.91878307184189
8,8.64932348607993
831,15.6000679475266
1912,16.
2,1, 1,21, 0,16,30.00,45.00,WinterDesignDay
2097,16.6290373489127
2098,1.91878307184189
8,8.64932348607993
831,15.6000655827726
1912,16.
2,1, 1,21, 0,16,45.00,60.00,WinterDesignDay
2097,16.6280858551871
2098,1.91878307184189
8,8.64932348607993
831,15.6000627047209
1912,16.
2,1, 1,21, 0,17, 0.00,15.00,WinterDesignDay
2097,16.6271591041527
2098,1.91878307184189
8,8.64932348607993
831,15.6000618700087
1912,16.
2,1, 1,21, 0,17,15.00,30.00,WinterDesignDay
2097,16.625605724932
2098,1.91878307184189
8,8.64932348607993
831,15.6000620416125
1912,16.
2,1, 1,21, 0,17,30.00,45.00,WinterDesignDay
2097,16.6246304185344
2098,1.91878307184189
8,8.64932348607993
831,15.6000632269978
1912,16.
2,1, 1,21, 0,17,45.00,60.00,WinterDesignDay
2097,16.6236064570648
2098,1.91878307184189
8,8.64932348607993
831,15.6000635489105
1912,16.
2,1, 1,21, 0,18, 0.00,15.00,WinterDesignDay
2097,16.6227028994657
2098,1.91878307184189
8,8.64932348607993
831,15.6000626867545
1912,16.
2,1, 1,21, 0,18,15.00,30.00,WinterDesignDay
2097,16.6265747928013
2098,1.91878307184189
8,8.64932348607993
831,15.6000616360112
1912,16.
2,1, 1,21, 0,18,30.00,45.00,WinterDesignDay
2097,16.6257499029004
2098,1.91878307184189
8,8.64932348607993
831,15.6000508589897
1912,16.
2,1, 1,21, 0,18,45.00,60.00,WinterDesignDay
2097,16.6249518564073
2098,1.91878307184189
8,8.64932348607993
831,15.6000425598856
1912,16.
2,1, 1,21, 0,19, 0.00, 5.00,WinterDesignDay
2097,14.6482375846185
2098,0.0
2,1, 1,21, 0,19, 5.00,10.00,WinterDesignDay
2097,14.4568217315436
2098,0.0
2,1, 1,21, 0,19,10.00,15.00,WinterDesignDay
2097,18.2219003959273
2098,1.91878307184189
2,1, 1,21, 0,19, 0.00,15.00,WinterDesignDay
8,8.64932348607993
831,15.1208895863914
1912,16.
2,1, 1,21, 0,19,15.00,22.50,WinterDesignDay
2097,16.79724015994
2098,1.91878307184189
2,1, 1,21, 0,19,22.50,30.00,WinterDesignDay
2097,16.6276250589298
2098,1.91878307184189
2,1, 1,21, 0,19,15.00,30.00,WinterDesignDay
8,8.64932348607993
831,15.5005528460729
1912,16.
2,1, 1,21, 0,19,30.00,35.00,WinterDesignDay
2097,14.4205186102542
2098,0.0
2,1, 1,21, 0,19,35.00,40.00,WinterDesignDay
2097,14.2331232933957
2098,0.0
2,1, 1,21, 0,19,40.00,45.00,WinterDesignDay
2097,14.0269671479038
2098,0.0
2,1, 1,21, 0,19,30.00,45.00,WinterDesignDay
8,8.64932348607993
831,14.7106493011189
1912,16.
2,1, 1,21, 0,19,45.00,50.00,WinterDesignDay
2097,18.5540684567198
2098,1.91878307184189
2,1, 1,21, 0,19,50.00,55.00,WinterDesignDay
2097,15.2789216192805
2098,1.91878307184189
2,1, 1,21, 0,19,55.00,60.00,WinterDesignDay
2097,16.7113097300077
2098,1.91878307184189
2,1, 1,21, 0,19,45.00,60.00,WinterDesignDay
8,8.64932348607993
831,15.4907577896716
1912,16.
2,1, 1,21, 0,20, 0.00,15.00,WinterDesignDay
2097,16.4432243314437
2098,1.91878307184189
8,8.64932348607993
831,15.5928543584034
1912,16.
2,1, 1,21, 0,20,15.00,20.00,WinterDesignDay
2097,14.3973236873909
2098,0.0
2,1, 1,21, 0,20,20.00,25.00,WinterDesignDay
2097,14.1797396915819
2098,0.0
2,1, 1,21, 0,20,25.00,30.00,WinterDesignDay
2097,13.9644371671427
2098,0.0
2,1, 1,21, 0,20,15.00,30.00,WinterDesignDay
8,8.64932348607993
831,14.7462697681794
1912,16.
2,1, 1,21, 0,20,30.00,35.00,WinterDesignDay
2097,18.6868837823543
2098,1.91878307184189
2,1, 1,21, 0,20,35.00,40.00,WinterDesignDay
2097,15.2760740985768
2098,1.91878307184189
2,1, 1,21, 0,20,40.00,45.00,WinterDesignDay
2097,16.7795177123606
2098,1.91878307184189
2,1, 1,21, 0,20,30.00,45.00,WinterDesignDay
8,8.64932348607993
831,15.4958516474501
1912,16.
2,1, 1,21, 0,20,45.00,60.00,WinterDesignDay
2097,16.4800905286861
2098,1.91878307184189
8,8.64932348607993
831,15.5932490263544
1912,16.
2,1, 1,21, 0,21, 0.00, 3.75,WinterDesignDay
2097,14.3653988611496
2098,0.0
2,1, 1,21, 0,21, 3.75, 7.50,WinterDesignDay
2097,14.189894266961
2098,0.0
2,1, 1,21, 0,21, 7.50,11.25,WinterDesignDay
2097,14.0067226278438
2098,0.0
2,1, 1,21, 0,21,11.25,15.00,WinterDesignDay
2097,13.8378195314018
2098,0.0
2,1, 1,21, 0,21, 0.00,15.00,WinterDesignDay
8,8.64932348607993
831,14.7243468440463
1912,16.
2,1, 1,21, 0,21,15.00,20.00,WinterDesignDay
2097,17.233730547878
2098,1.91878307184189
2,1, 1,21, 0,21,20.00,25.00,WinterDesignDay
2097,16.2186272401657
2098,1.91878307184189
2,1, 1,21, 0,21,25.00,30.00,WinterDesignDay
2097,16.5089922894168
2098,1.91878307184189
2,1, 1,21, 0,21,15.00,30.00,WinterDesignDay
8,8.64932348607993
831,15.4930204449662
1912,16.
2,1, 1,21, 0,21,30.00,45.00,WinterDesignDay
2097,16.4903854317808
2098,1.91878307184189
8,8.64932348607993
831,15.5930619934116
1912,16.
2,1, 1,21, 0,21,45.00,48.75,WinterDesignDay
2097,14.4314807603212
2098,0.0
2,1, 1,21, 0,21,48.75,52.50,WinterDesignDay
2097,14.2470405697531
2098,0.0
2,1, 1,21, 0,21,52.50,56.25,WinterDesignDay
2097,14.0448832878557
2098,0.0
2,1, 1,21, 0,21,56.25,60.00,WinterDesignDay
2097,13.8620017115097
2098,0.0
2,1, 1,21, 0,21,45.00,60.00,WinterDesignDay
8,8.64932348607993
831,14.7163976957694
1912,16.
2,1, 1,21, 0,22, 0.00, 5.00,WinterDesignDay
2097,17.2468739300168
2098,1.91878307184189
2,1, 1,21, 0,22, 5.00,10.00,WinterDesignDay
2097,16.222326429108
2098,1.91878307184189
2,1, 1,21, 0,22,10.00,15.00,WinterDesignDay
2097,16.5154685025794
2098,1.91878307184189
2,1, 1,21, 0,22, 0.00,15.00,WinterDesignDay
8,8.64932348607993
831,15.4920644813216
1912,16.
2,1, 1,21, 0,22,15.00,30.00,WinterDesignDay
2097,16.4966206313899
2098,1.91878307184189
8,8.64932348607993
831,15.5930057792526
1912,16.
2,1, 1,21, 0,22,30.00,33.75,WinterDesignDay
2097,14.433671265092
2098,0.0
2,1, 1,21, 0,22,33.75,37.50,WinterDesignDay
2097,14.2498886421692
2098,0.0
2,1, 1,21, 0,22,37.50,41.25,WinterDesignDay
2097,14.0464036200037
2098,0.0
2,1, 1,21, 0,22,41.25,45.00,WinterDesignDay
2097,13.8627157472892
2098,0.0
2,1, 1,21, 0,22,30.00,45.00,WinterDesignDay
8,8.64932348607993
831,14.7114222980845
1912,16.
2,1, 1,21, 0,22,45.00,50.00,WinterDesignDay
2097,17.2552413482112
2098,1.91878307184189
2,1, 1,21, 0,22,50.00,55.00,WinterDesignDay
2097,16.2248776422645
2098,1.91878307184189
2,1, 1,21, 0,22,55.00,60.00,WinterDesignDay
2097,16.5196691291066
2098,1.91878307184189
2,1, 1,21, 0,22,45.00,60.00,WinterDesignDay
8,8.64932348607993
831,15.4914531200496
1912,16.
2,1, 1,21, 0,23, 0.00,15.00,WinterDesignDay
2097,16.5020267502387
2098,1.91878307184189
8,8.64932348607993
831,15.5929686782225
1912,30.
2,1, 1,21, 0,23,15.00,18.75,WinterDesignDay
2097,14.431993134637
2098,0.0
2,1, 1,21, 0,23,18.75,22.50,WinterDesignDay
2097,14.2481279778527
2098,0.0
2,1, 1,21, 0,23,22.50,26.25,WinterDesignDay
2097,14.044369915459
2098,0.0
2,1, 1,21, 0,23,26.25,30.00,WinterDesignDay
2097,13.8604834145147
2098,0.0
2,1, 1,21, 0,23,15.00,30.00,WinterDesignDay
8,8.64932348607993
831,14.7073798089803
1912,30.
2,1, 1,21, 0,23,30.00,35.00,WinterDesignDay
2097,17.2615417481954
2098,1.91878307184189
2,1, 1,21, 0,23,35.00,40.00,WinterDesignDay
2097,16.2265172176572
2098,1.91878307184189
2,1, 1,21, 0,23,40.00,45.00,WinterDesignDay
2097,16.5225774200859
2098,1.91878307184189
2,1, 1,21, 0,23,30.00,45.00,WinterDesignDay
8,8.64932348607993
831,15.490942887493
1912,30.
2,1, 1,21, 0,23,45.00,60.00,WinterDesignDay
2097,16.5067863971878
2098,1.91878307184189
8,8.64932348607993
831,15.5929366277799
1912,30.
2,1, 1,21, 0,24, 0.00, 3.75,WinterDesignDay
2097,14.4299474449719
2098,0.0
2,1, 1,21, 0,24, 3.75, 7.50,WinterDesignDay
2097,14.2458825668443
2098,0.0
2,1, 1,21, 0,24, 7.50,11.25,WinterDesignDay
2097,14.0419293248252
2098,0.0
2,1, 1,21, 0,24,11.25,15.00,WinterDesignDay
2097,13.8578834049721
2098,0.0
2,1, 1,21, 0,24, 0.00,15.00,WinterDesignDay
8,8.64932348607993
831,14.7038545923524
1912,30.
2,1, 1,21, 0,24,15.00,20.00,WinterDesignDay
2097,17.2668524704272
2098,1.91878307184189
2,1, 1,21, 0,24,20.00,25.00,WinterDesignDay
2097,16.2277868702631
2098,1.91878307184189
2,1, 1,21, 0,24,25.00,30.00,WinterDesignDay
2097,16.5249273764928
2098,1.91878307184189
2,1, 1,21, 0,24,15.00,30.00,WinterDesignDay
8,8.64932348607993
831,15.4904928389979
1912,30.
2,1, 1,21, 0,24,30.00,45.00,WinterDesignDay
2097,16.5110792261988
2098,1.91878307184189
8,8.64932348607993
831,15.5929080985573
1912,30.
2,1, 1,21, 0,24,45.00,48.75,WinterDesignDay
2097,14.4279567195326
2098,0.0
2,1, 1,21, 0,24,48.75,52.50,WinterDesignDay
2097,14.2436849437843
2098,0.0
2,1, 1,21, 0,24,52.50,56.25,WinterDesignDay
2097,14.0395578151413
2098,0.0
2,1, 1,21, 0,24,56.25,60.00,WinterDesignDay
2097,13.8553665337695
2098,0.0
2,1, 1,21, 0,24,45.00,60.00,WinterDesignDay
8,8.64932348607993
831,14.7006828689802
1912,30.
1,MIAMI INTL AP ANN CLG .4% CONDNS DB=>MWB,  25.82, -80.30,  -5.00,  11.00
2,1, 7,21, 0, 1, 0.00, 1.50,SummerDesignDay
2097,24.2885773793913
2098,0.0
2,1, 7,21, 0, 1, 1.50, 3.00,SummerDesignDay
2097,24.3142421613145
2098,0.0
2,1, 7,21, 0, 1, 3.00, 4.50,SummerDesignDay
2097,24.384086809479
2098,0.0
2,1, 7,21, 0, 1, 4.50, 6.00,SummerDesignDay
2097,24.454242655698
2098,0.0
2,1, 7,21, 0, 1, 6.00, 7.50,SummerDesignDay
2097,24.519160811611
2098,0.0
2,1, 7,21, 0, 1, 7.50, 9.00,SummerDesignDay
2097,24.5779126553906
2098,0.0
2,1, 7,21, 0, 1, 9.00,10.50,SummerDesignDay
2097,13.4711087381701
2098,1.91878307184189
2,1, 7,21, 0, 1,10.50,12.00,SummerDesignDay
2097,12.6508589183147
2098,1.91878307184189
2,1, 7,21, 0, 1,12.00,13.50,SummerDesignDay
2097,12.7996119420526
2098,1.91878307184189
2,1, 7,21, 0, 1,13.50,15.00,SummerDesignDay
2097,12.7996867558822
2098,1.91878307184189
2,1, 7,21, 0, 1, 0.00,15.00,SummerDesignDay
8,27.5548234860799
831,22.801340210295
1912,30.
2,1, 7,21, 0, 1,15.00,16.25,SummerDesignDay
2097,12.799750750171
2098,1.91878307184189
2,1, 7,21, 0, 1,16.25,17.50,SummerDesignDay
2097,12.7997279534067
2098,1.91878307184189
2,1, 7,21, 0, 1,17.50,18.75,SummerDesignDay
2097,12.7997312212587
2098,1.91878307184189
2,1, 7,21, 0, 1,18.75,20.00,SummerDesignDay
2097,12.7997472814779
2098,1.91878307184189
2,1, 7,21, 0, 1,20.00,21.25,SummerDesignDay
2097,12.7997709024415
2098,1.91878307184189
2,1, 7,21, 0, 1,21.25,22.50,SummerDesignDay
2097,12.7997967882998
2098,1.91878307184189
2,1, 7,21, 0, 1,22.50,23.75,SummerDesignDay
2097,12.7998209311595
2098,1.91878307184189
2,1, 7,21, 0, 1,23.75,25.00,SummerDesignDay
2097,12.7998415313304
2098,1.91878307184189
2,1, 7,21, 0, 1,25.00,26.25,SummerDesignDay
2097,12.7998583602856
2098,1.91878307184189
2,1, 7,21, 0, 1,26.25,27.50,SummerDesignDay
2097,12.7998718743739
2098,1.91878307184189
2,1, 7,21, 0, 1,27.50,28.75,SummerDesignDay
2097,12.7998826822639
2098,1.91878307184189
2,1, 7,21, 0, 1,28.75,30.00,SummerDesignDay
2097,12.7998913194835
2098,1.91878307184189
2,1, 7,21, 0, 1,15.00,30.00,SummerDesignDay
8,27.4543234860799
831,19.221686765018
1912,30.
2,1, 7,21, 0, 1,30.00,31.67,SummerDesignDay
2097,24.0834323710098
2098,0.0
2,1, 7,21, 0, 1,31.67,33.33,SummerDesignDay
2097,24.1846032988024
2098,0.0
2,1, 7,21, 0, 1,33.33,35.00,SummerDesignDay
2097,24.2803628288985
2098,0.0
2,1, 7,21, 0, 1,35.00,36.67,SummerDesignDay
2097,24.3812634085624
2098,0.0
2,1, 7,21, 0, 1,36.67,38.33,SummerDesignDay
2097,24.4664244868003
2098,0.0
2,1, 7,21, 0, 1,38.33,40.00,SummerDesignDay
2097,24.5334103006447
2098,0.0
2,1, 7,21, 0, 1,40.00,41.67,SummerDesignDay
2097,24.5860153881147
2098,0.0
2,1, 7,21, 0, 1,41.67,43.33,SummerDesignDay
2097,24.6282179072254
2098,0.0
2,1, 7,21, 0, 1,43.33,45.00,SummerDesignDay
2097,24.6626925087284
2098,0.0
2,1, 7,21, 0, 1,30.00,45.00,SummerDesignDay
8,27.3538234860799
831,21.7839065808793
1912,30.
2,1, 7,21, 0, 1,45.00,46.67,SummerDesignDay
2097,24.4904516823502
2098,0.0
2,1, 7,21, 0, 1,46.67,48.33,SummerDesignDay
2097,24.7244063789021
2098,0.0
2,1, 7,21, 0, 1,48.33,50.00,SummerDesignDay
2097,24.7596786508197
2098,0.0
2,1, 7,21, 0, 1,50.00,51.67,SummerDesignDay
2097,24.7931067291858
2098,0.0
2,1, 7,21, 0, 1,51.67,53.33,SummerDesignDay
2097,24.823055341472
2098,0.0
2,1, 7,21, 0, 1,53.33,55.00,SummerDesignDay
2097,24.8494063352772
2098,0.0
2,1, 7,21, 0, 1,55.00,56.67,SummerDesignDay
2097,24.8725882655552
2098,0.0
2,1, 7,21, 0, 1,56.67,58.33,SummerDesignDay
2097,24.8930711844632
2098,0.0
2,1, 7,21, 0, 1,58.33,60.00,SummerDesignDay
2097,24.9112279039777
2098,0.0
2,1, 7,21, 0, 1,45.00,60.00,SummerDesignDay
8,27.2533234860799
831,23.4592067380073
1912,30.
2,1, 7,21, 0, 2, 0.00, 3.00,SummerDesignDay
2097,24.8393204524425
2098,0.0
2,1, 7,21, 0, 2, 3.00, 6.00,SummerDesignDay
2097,24.8525362682391
2098,0.0
2,1, 7,21, 0, 2, 6.00, 9.00,SummerDesignDay
2097,24.9332018560156
2098,0.0
2,1, 7,21, 0, 2, 9.00,12.00,SummerDesignDay
2097,13.3641188886809
2098,1.91878307184189
2,1, 7,21, 0, 2,12.00,15.00,SummerDesignDay
2097,12.7568366044132
2098,1.91878307184189
2,1, 7,21, 0, 2, 0.00,15.00,SummerDesignDay
8,27.1863234860799
831,22.5653423337701
1912,30.
2,1, 7,21, 0, 2,15.00,16.36,SummerDesignDay
2097,12.813709264209
2098,1.91878307184189
2,1, 7,21, 0, 2,16.36,17.73,SummerDesignDay
2097,12.7852632970135
2098,1.91878307184189
2,1, 7,21, 0, 2,17.73,19.09,SummerDesignDay
2097,12.7997817025038
2098,1.91878307184189
2,1, 7,21, 0, 2,19.09,20.45,SummerDesignDay
2097,12.7998038434521
2098,1.91878307184189
2,1, 7,21, 0, 2,20.45,21.82,SummerDesignDay
2097,12.7998263768359
2098,1.91878307184189
2,1, 7,21, 0, 2,21.82,23.18,SummerDesignDay
2097,12.7998493234169
2098,1.91878307184189
2,1, 7,21, 0, 2,23.18,24.55,SummerDesignDay
2097,12.7998693652697
2098,1.91878307184189
2,1, 7,21, 0, 2,24.55,25.91,SummerDesignDay
2097,12.7998853899676
2098,1.91878307184189
2,1, 7,21, 0, 2,25.91,27.27,SummerDesignDay
2097,12.7998976294032
2098,1.91878307184189
2,1, 7,21, 0, 2,27.27,28.64,SummerDesignDay
2097,12.7999067921281
2098,1.91878307184189
2,1, 7,21, 0, 2,28.64,30.00,SummerDesignDay
2097,12.7999135916675
2098,1.91878307184189
2,1, 7,21, 0, 2,15.00,30.00,SummerDesignDay
8,27.1193234860799
831,19.2097039038863
1912,30.
2,1, 7,21, 0, 2,30.00,32.14,SummerDesignDay
2097,24.331270960784
2098,0.0
2,1, 7,21, 0, 2,32.14,34.29,SummerDesignDay
2097,24.4595945258633
2098,0.0
2,1, 7,21, 0, 2,34.29,36.43,SummerDesignDay
2097,24.5594916268009
2098,0.0
2,1, 7,21, 0, 2,36.43,38.57,SummerDesignDay
2097,24.664600216823
2098,0.0
2,1, 7,21, 0, 2,38.57,40.71,SummerDesignDay
2097,24.748972478398
2098,0.0
2,1, 7,21, 0, 2,40.71,42.86,SummerDesignDay
2097,24.8106283128513
2098,0.0
2,1, 7,21, 0, 2,42.86,45.00,SummerDesignDay
2097,24.8553737906534
2098,0.0
2,1, 7,21, 0, 2,30.00,45.00,SummerDesignDay
8,27.0523234860799
831,21.8658478470632
1912,30.
2,1, 7,21, 0, 2,45.00,46.67,SummerDesignDay
2097,24.7124990155
2098,0.0
2,1, 7,21, 0, 2,46.67,48.33,SummerDesignDay
2097,24.7205069527367
2098,0.0
2,1, 7,21, 0, 2,48.33,50.00,SummerDesignDay
2097,24.772598935311
2098,0.0
2,1, 7,21, 0, 2,50.00,51.67,SummerDesignDay
2097,24.8211921399059
2098,0.0
2,1, 7,21, 0, 2,51.67,53.33,SummerDesignDay
2097,24.8644485708714
2098,0.0
2,1, 7,21, 0, 2,53.33,55.00,SummerDesignDay
2097,24.9024851960554
2098,0.0
2,1, 7,21, 0, 2,55.00,56.67,SummerDesignDay
2097,24.936002318732
2098,0.0
2,1, 7,21, 0, 2,56.67,58.33,SummerDesignDay
2097,24.9656726941906
2098,0.0
2,1, 7,21, 0, 2,58.33,60.00,SummerDesignDay
2097,24.9920122660786
2098,0.0
2,1, 7,21, 0, 2,45.00,60.00,SummerDesignDay
8,26.9853234860799
831,22.9634658491046
1912,30.
2,1, 7,21, 0, 3, 0.00, 1.15,SummerDesignDay
2097,12.8540295990739
2098,1.91878307184189
2,1, 7,21, 0, 3, 1.15, 2.31,SummerDesignDay
2097,12.7465198977501
2098,1.91878307184189
2,1, 7,21, 0, 3, 2.31, 3.46,SummerDesignDay
2097,12.7998061846725
2098,1.91878307184189
2,1, 7,21, 0, 3, 3.46, 4.62,SummerDesignDay
2097,12.7998322977093
2098,1.91878307184189
2,1, 7,21, 0, 3, 4.62, 5.77,SummerDesignDay
2097,12.7998464022485
2098,1.91878307184189
2,1, 7,21, 0, 3, 5.77, 6.92,SummerDesignDay
2097,12.7998643824995
2098,1.91878307184189
2,1, 7,21, 0, 3, 6.92, 8.08,SummerDesignDay
2097,12.7998826272159
2098,1.91878307184189
2,1, 7,21, 0, 3, 8.08, 9.23,SummerDesignDay
2097,12.79989914075
2098,1.91878307184189
2,1, 7,21, 0, 3, 9.23,10.38,SummerDesignDay
2097,12.7999132384237
2098,1.91878307184189
2,1, 7,21, 0, 3,10.38,11.54,SummerDesignDay
2097,12.7999249248843
2098,1.91878307184189
2,1, 7,21, 0, 3,11.54,12.69,SummerDesignDay
2097,12.7999344693809
2098,1.91878307184189
2,1, 7,21, 0, 3,12.69,13.85,SummerDesignDay
2097,12.7999421939411
2098,1.91878307184189
2,1, 7,21, 0, 3,13.85,15.00,SummerDesignDay
2097,12.7999484000327
2098,1.91878307184189
2,1, 7,21, 0, 3, 0.00,15.00,SummerDesignDay
8,26.9350734860799
831,18.4203341519071
1912,30.
2,1, 7,21, 0, 3,15.00,17.14,SummerDesignDay
2097,12.7998975720911
2098,1.91878307184189