Program Version,EnergyPlus-Windows-64 8.0.0.008, YMD=2018.11.12 22:22
1,5,Environment Title[],Latitude[deg],Longitude[deg],Time Zone[],Elevation[m]
2,6,Day of Simulation[],Month[],Day of Month[],DST Indicator[1=yes 0=no],Hour[],StartMinute[],EndMinute[],DayType
3,3,Cumulative Day of Simulation[],Month[],Day of Month[],DST Indicator[1=yes 0=no],DayType  ! When Daily Report Variables Requested
4,2,Cumulative Days of Simulation[],Month[]  ! When Monthly Report Variables Requested
5,1,Cumulative Days of Simulation[] ! When Run Period Report Variables Requested
8,1,PERIMETER_TOP_ZN_3,Zone Outdoor Air Drybulb Temperature [C] !Each Call
831,1,PERIMETER_TOP_ZN_3,Zone Mean Air Temperature [C] !Each Call
1912,1,CUSTOM_ZONE_CLGT_SETPOINT,Schedule Value [] !Each Call
End of Data Dictionary
1,MIAMI INTL AP ANN HTG 99.6% CONDNS DB,  25.82, -80.30,  -5.00,  11.00
2,1, 1,21, 0, 1, 0.00,15.00,WinterDesignDay
8,8.64932348607993
831,15.5857651132838
1912,30.
2,1, 1,21, 0, 1,15.00,30.00,WinterDesignDay
8,8.64932348607993
831,15.6000067900925
1912,30.
2,1, 1,21, 0, 1,30.00,45.00,WinterDesignDay
8,8.64932348607993
831,14.6836503105519
1912,30.
2,1, 1,21, 0, 1,45.00,60.00,WinterDesignDay
8,8.64932348607993
831,15.5857112053518
1912,30.
2,1, 1,21, 0, 2, 0.00,15.00,WinterDesignDay
8,8.64932348607993
831,15.6000041112909
1912,30.
2,1, 1,21, 0, 2,15.00,30.00,WinterDesignDay
8,8.64932348607993
831,14.6809216631364
1912,30.
2,1, 1,21, 0, 2,30.00,45.00,WinterDesignDay
8,8.64932348607993
831,15.5856619311585
1912,30.
2,1, 1,21, 0, 2,45.00,60.00,WinterDesignDay
8,8.64932348607993
831,15.6000020726351
1912,30.
2,1, 1,21, 0, 3, 0.00,15.00,WinterDesignDay
8,8.64932348607993
831,14.6784081625447
1912,30.
2,1, 1,21, 0, 3,15.00,30.00,WinterDesignDay
8,8.64932348607993
831,15.5856166513657
1912,30.
2,1, 1,21, 0, 3,30.00,45.00,WinterDesignDay
8,8.64932348607993
831,15.6000005007587
1912,30.
2,1, 1,21, 0, 3,45.00,60.00,WinterDesignDay
8,8.64932348607993
831,14.676086445741
1912,30.
2,1, 1,21, 0, 4, 0.00,15.00,WinterDesignDay
8,8.64932348607993
831,15.5855749013024
1912,30.
2,1, 1,21, 0, 4,15.00,30.00,WinterDesignDay
8,8.64932348607993
831,15.5999992724064
1912,30.
2,1, 1,21, 0, 4,30.00,45.00,WinterDesignDay
8,8.64932348607993
831,14.6739379492505
1912,30.
2,1, 1,21, 0, 4,45.00,60.00,WinterDesignDay
8,8.64932348607993
831,15.5855363141625
1912,30.
2,1, 1,21, 0, 5, 0.00,15.00,WinterDesignDay
8,8.64932348607993
831,15.5999982997623
1912,30.
2,1, 1,21, 0, 5,15.00,30.00,WinterDesignDay
8,8.64932348607993
831,14.6719470269825
1912,30.
2,1, 1,21, 0, 5,30.00,45.00,WinterDesignDay
8,8.64932348607993
831,15.5855005852076
1912,30.
2,1, 1,21, 0, 5,45.00,60.00,WinterDesignDay
8,8.64932348607993
831,15.5999975199615
1912,30.
2,1, 1,21, 0, 6, 0.00,15.00,WinterDesignDay
8,8.64932348607993
831,14.6701000365762
1912,30.
2,1, 1,21, 0, 6,15.00,30.00,WinterDesignDay
8,8.64932348607993
831,15.5854674533317
1912,30.
2,1, 1,21, 0, 6,30.00,45.00,WinterDesignDay
8,8.64932348607993
831,15.5999968876561
1912,30.
2,1, 1,21, 0, 6,45.00,60.00,WinterDesignDay
8,8.64932348607993
831,14.668384858826
1912,30.
2,1, 1,21, 0, 7, 0.00,15.00,WinterDesignDay
8,8.64932348607993
831,15.5853601566042
1912,16.
2,1, 1,21, 0, 7,15.00,30.00,WinterDesignDay
8,8.64932348607993
831,15.5996020649439
1912,16.
2,1, 1,21, 0, 7,30.00,45.00,WinterDesignDay
8,8.64932348607993
831,15.6000194377997
1912,16.
2,1, 1,21, 0, 7,45.00,60.00,WinterDesignDay
8,8.64932348607993
831,15.6000323728978
1912,16.
2,1, 1,21, 0, 8, 0.00,15.00,WinterDesignDay
8,8.64932348607993
831,15.6000455821166
1912,16.
2,1, 1,21, 0, 8,15.00,30.00,WinterDesignDay
8,8.64932348607993
831,15.6000541136354
1912,16.
2,1, 1,21, 0, 8,30.00,45.00,WinterDesignDay
8,8.64932348607993
831,15.600066362108
1912,16.
2,1, 1,21, 0, 8,45.00,60.00,WinterDesignDay
8,8.64932348607993
831,15.600079516678
1912,16.
2,1, 1,21, 0, 9, 0.00,15.00,WinterDesignDay
8,8.64932348607993
831,15.6000901400067
1912,16.
2,1, 1,21, 0, 9,15.00,30.00,WinterDesignDay
8,8.64932348607993
831,15.600097374989
1912,16.
2,1, 1,21, 0, 9,30.00,45.00,WinterDesignDay
8,8.64932348607993
831,15.6001094691459
1912,16.
2,1, 1,21, 0, 9,45.00,60.00,WinterDesignDay
8,8.64932348607993
831,15.6001228753333
1912,16.
2,1, 1,21, 0,10, 0.00,15.00,WinterDesignDay
8,8.64932348607993
831,15.6001337650307
1912,16.
2,1, 1,21, 0,10,15.00,30.00,WinterDesignDay
8,8.64932348607993
831,15.6001409719314
1912,16.
2,1, 1,21, 0,10,30.00,45.00,WinterDesignDay
8,8.64932348607993
831,15.6001565785677
1912,16.
2,1, 1,21, 0,10,45.00,60.00,WinterDesignDay
8,8.64932348607993
831,15.6001747572917
1912,16.
2,1, 1,21, 0,11, 0.00,15.00,WinterDesignDay
8,8.64932348607993
831,15.6001895344534
1912,16.
2,1, 1,21, 0,11,15.00,30.00,WinterDesignDay
8,8.64932348607993
831,15.600199786286
1912,16.
2,1, 1,21, 0,11,30.00,45.00,WinterDesignDay
8,8.64932348607993
831,15.6002032178678
1912,16.
2,1, 1,21, 0,11,45.00,60.00,WinterDesignDay
8,8.64932348607993
831,15.6002038580501
1912,16.
2,1, 1,21, 0,12, 0.00,15.00,WinterDesignDay
8,8.64932348607993
831,15.6002047324588
1912,16.
2,1, 1,21, 0,12,15.00,30.00,WinterDesignDay
8,8.64932348607993
831,15.6002061325293
1912,16.
2,1, 1,21, 0,12,30.00,45.00,WinterDesignDay
8,8.64932348607993
831,15.6002150525191
1912,16.
2,1, 1,21, 0,12,45.00,60.00,WinterDesignDay
8,8.64932348607993
831,15.6002262500087
1912,16.
2,1, 1,21, 0,13, 0.00,15.00,WinterDesignDay
8,8.64932348607993
831,15.6002352131267
1912,16.
2,1, 1,21, 0,13,15.00,30.00,WinterDesignDay
8,8.64932348607993
831,15.6002413841293
1912,16.
2,1, 1,21, 0,13,30.00,45.00,WinterDesignDay
8,8.64932348607993
831,15.6002401387935
1912,16.
2,1, 1,21, 0,13,45.00,60.00,WinterDesignDay
8,8.64932348607993
831,15.6002361914928
1912,16.
2,1, 1,21, 0,14, 0.00,15.00,WinterDesignDay
8,8.64932348607993
831,15.6002333406244
1912,16.
2,1, 1,21, 0,14,15.00,30.00,WinterDesignDay
8,8.64932348607993
831,15.6002324352804
1912,16.
2,1, 1,21, 0,14,30.00,45.00,WinterDesignDay
8,8.64932348607993
831,15.6002308019807
1912,16.
2,1, 1,21, 0,14,45.00,60.00,WinterDesignDay
8,8.64932348607993
831,15.6002287332801
1912,16.
2,1, 1,21, 0,15, 0.00,15.00,WinterDesignDay
8,8.64932348607993
831,15.6002270163898
1912,16.
2,1, 1,21, 0,15,15.00,30.00,WinterDesignDay
8,8.64932348607993
831,15.600226222123
1912,16.
2,1, 1,21, 0,15,30.00,45.00,WinterDesignDay
8,8.64932348607993
831,15.6002187442378
1912,16.
2,1, 1,21, 0,15,45.00,60.00,WinterDesignDay
8,8.64932348607993
831,15.6002090432209
1912,16.
2,1, 1,21, 0,16, 0.00,15.00,WinterDesignDay
8,8.64932348607993
831,15.6002012886042
1912,16.
2,1, 1,21, 0,16,15.00,30.00,WinterDesignDay
8,8.64932348607993
831,15.600196552249
1912,16.
2,1, 1,21, 0,16,30.00,45.00,WinterDesignDay
8,8.64932348607993
831,15.6001901334377
1912,16.
2,1, 1,21, 0,16,45.00,60.00,WinterDesignDay
8,8.64932348607993
831,15.6001832639634
1912,16.
2,1, 1,21, 0,17, 0.00,15.00,WinterDesignDay
8,8.64932348607993
831,15.6001775785457
1912,16.
2,1, 1,21, 0,17,15.00,30.00,WinterDesignDay
8,8.64932348607993
831,15.6001734074326
1912,16.
2,1, 1,21, 0,17,30.00,45.00,WinterDesignDay
8,8.64932348607993
831,15.6001721532377
1912,16.
2,1, 1,21, 0,17,45.00,60.00,WinterDesignDay
8,8.64932348607993
831,15.6001721452566
1912,16.
2,1, 1,21, 0,18, 0.00,15.00,WinterDesignDay
8,8.64932348607993
831,15.6001720314699
1912,16.
2,1, 1,21, 0,18,15.00,30.00,WinterDesignDay
8,8.64932348607993
831,15.6001720031712
1912,16.
2,1, 1,21, 0,18,30.00,45.00,WinterDesignDay
8,8.64932348607993
831,15.6001593913526
1912,16.
2,1, 1,21, 0,18,45.00,60.00,WinterDesignDay
8,8.64932348607993
831,15.6001425023083
1912,16.
2,1, 1,21, 0,19, 0.00,15.00,WinterDesignDay
8,8.64932348607993
831,15.1345769113388
1912,16.
2,1, 1,21, 0,19,15.00,30.00,WinterDesignDay
8,8.64932348607993
831,15.5867806823168
1912,16.
2,1, 1,21, 0,19,30.00,45.00,WinterDesignDay
8,8.64932348607993
831,14.7298963954586
1912,16.
2,1, 1,21, 0,19,45.00,60.00,WinterDesignDay
8,8.64932348607993
831,15.49552572383
1912,16.
2,1, 1,21, 0,20, 0.00,15.00,WinterDesignDay
8,8.64932348607993
831,15.6000607322702
1912,16.
2,1, 1,21, 0,20,15.00,30.00,WinterDesignDay
8,8.64932348607993
831,14.7205435818028
1912,16.
2,1, 1,21, 0,20,30.00,45.00,WinterDesignDay
8,8.64932348607993
831,15.586368748001
1912,16.
2,1, 1,21, 0,20,45.00,60.00,WinterDesignDay
8,8.64932348607993
831,15.6000656385177
1912,16.
2,1, 1,21, 0,21, 0.00,15.00,WinterDesignDay
8,8.64932348607993
831,14.7112203455388
1912,16.
2,1, 1,21, 0,21,15.00,30.00,WinterDesignDay
8,8.64932348607993
831,15.5862098433171
1912,16.
2,1, 1,21, 0,21,30.00,45.00,WinterDesignDay
8,8.64932348607993
831,15.6000442319124
1912,16.
2,1, 1,21, 0,21,45.00,60.00,WinterDesignDay
8,8.64932348607993
831,14.7034281097763
1912,16.
2,1, 1,21, 0,22, 0.00,15.00,WinterDesignDay
8,8.64932348607993
831,15.5860695287132
1912,16.
2,1, 1,21, 0,22,15.00,30.00,WinterDesignDay
8,8.64932348607993
831,15.6000307930347
1912,16.
2,1, 1,21, 0,22,30.00,45.00,WinterDesignDay
8,8.64932348607993
831,14.6978491059963
1912,16.
2,1, 1,21, 0,22,45.00,60.00,WinterDesignDay
8,8.64932348607993
831,15.5859697572996
1912,16.
2,1, 1,21, 0,23, 0.00,15.00,WinterDesignDay
8,8.64932348607993
831,15.6000216802181
1912,30.
2,1, 1,21, 0,23,15.00,30.00,WinterDesignDay
8,8.64932348607993
831,14.6934166852625
1912,30.
2,1, 1,21, 0,23,30.00,45.00,WinterDesignDay
8,8.64932348607993
831,15.5858902171249
1912,30.
2,1, 1,21, 0,23,45.00,60.00,WinterDesignDay
8,8.64932348607993
831,15.6000151481037
1912,30.
2,1, 1,21, 0,24, 0.00,15.00,WinterDesignDay
8,8.64932348607993
831,14.6898378000629
1912,30.
2,1, 1,21, 0,24,15.00,30.00,WinterDesignDay
8,8.64932348607993
831,15.5858235751083
1912,30.
2,1, 1,21, 0,24,30.00,45.00,WinterDesignDay
8,8.64932348607993
831,15.6000103535659
1912,30.
2,1, 1,21, 0,24,45.00,60.00,WinterDesignDay
8,8.64932348607993
831,14.6865674024093
1912,30.
1,MIAMI INTL AP ANN CLG .4% CONDNS DB=>MWB,  25.82, -80.30,  -5.00,  11.00
2,1, 7,21, 0, 1, 0.00,15.00,SummerDesignDay
8,27.5548234860799
831,25.7680457571099
1912,30.
2,1, 7,21, 0, 1,15.00,30.00,SummerDesignDay
8,27.4543234860799
831,25.5364786570317
1912,30.
2,1, 7,21, 0, 1,30.00,45.00,SummerDesignDay
8,27.3538234860799
831,26.5393904944864
1912,30.
2,1, 7,21, 0, 1,45.00,60.00,SummerDesignDay
8,27.2533234860799
831,25.6783801172574
1912,30.
2,1, 7,21, 0, 2, 0.00,15.00,SummerDesignDay
8,27.1863234860799
831,25.4994598421336
1912,30.
2,1, 7,21, 0, 2,15.00,30.00,SummerDesignDay
8,27.1193234860799
831,26.5169965985782
1912,30.
2,1, 7,21, 0, 2,30.00,45.00,SummerDesignDay
8,27.0523234860799
831,25.6573831031315
1912,30.
2,1, 7,21, 0, 2,45.00,60.00,SummerDesignDay
8,26.9853234860799
831,25.4879826569617
1912,30.
2,1, 7,21, 0, 3, 0.00,15.00,SummerDesignDay
8,26.9350734860799
831,26.5079037333485
1912,30.
2,1, 7,21, 0, 3,15.00,30.00,SummerDesignDay
8,26.8848234860799
831,25.645141083811
1912,30.
2,1, 7,21, 0, 3,30.00,45.00,SummerDesignDay
8,26.8345734860799
831,25.4812611815784
1912,30.
2,1, 7,21, 0, 3,45.00,60.00,SummerDesignDay
8,26.7843234860799
831,26.5024916725157
1912,30.
2,1, 7,21, 0, 4, 0.00,15.00,SummerDesignDay
8,26.7340734860799
831,25.636077538576
1912,30.
2,1, 7,21, 0, 4,15.00,30.00,SummerDesignDay
8,26.6838234860799
831,25.4760608884257
1912,30.
2,1, 7,21, 0, 4,30.00,45.00,SummerDesignDay
8,26.6335734860799
831,26.4983151726785
1912,30.
2,1, 7,21, 0, 4,45.00,60.00,SummerDesignDay
8,26.5833234860799
831,25.6278249556153
1912,30.
2,1, 7,21, 0, 5, 0.00,15.00,SummerDesignDay
8,26.5498234860799
831,25.4943290112915
1912,30.
2,1, 7,21, 0, 5,15.00,30.00,SummerDesignDay
8,26.5163234860799
831,26.5060130768575
1912,30.
2,1, 7,21, 0, 5,30.00,45.00,SummerDesignDay
8,26.4828234860799
831,25.6300411877785
1912,30.
2,1, 7,21, 0, 5,45.00,60.00,SummerDesignDay
8,26.4493234860799
831,25.481677467035
1912,30.
2,1, 7,21, 0, 6, 0.00,15.00,SummerDesignDay
8,26.4828234860799
831,26.5031089008568
1912,30.
2,1, 7,21, 0, 6,15.00,30.00,SummerDesignDay
8,26.5163234860799
831,25.1431152087469
1912,30.
2,1, 7,21, 0, 6,30.00,45.00,SummerDesignDay
8,26.5498234860799
831,25.3465231854193
1912,30.
2,1, 7,21, 0, 6,45.00,60.00,SummerDesignDay
8,26.5833234860799
831,26.4795566990463
1912,30.
2,1, 7,21, 0, 7, 0.00,15.00,SummerDesignDay
8,26.7005734860799
831,25.0560423359087
1912,16.
2,1, 7,21, 0, 7,15.00,30.00,SummerDesignDay
8,26.8178234860799
831,25.0023733018118
1912,16.
2,1, 7,21, 0, 7,30.00,45.00,SummerDesignDay
8,26.9350734860799
831,25.0022692863536
1912,16.
2,1, 7,21, 0, 7,45.00,60.00,SummerDesignDay
8,27.0523234860799
831,25.0037184031534
1912,16.
2,1, 7,21, 0, 8, 0.00,15.00,SummerDesignDay
8,27.3370734860799
831,24.1340483526413
1912,16.
2,1, 7,21, 0, 8,15.00,30.00,SummerDesignDay
8,27.6218234860799
831,24.0133115565623
1912,16.
2,1, 7,21, 0, 8,30.00,45.00,SummerDesignDay
8,27.9065734860799
831,24.0040091552202
1912,16.
2,1, 7,21, 0, 8,45.00,60.00,SummerDesignDay
8,28.1913234860799
831,24.002693264654
1912,16.
2,1, 7,21, 0, 9, 0.00,15.00,SummerDesignDay
8,28.5095734860799
831,24.0031558435262
1912,16.
2,1, 7,21, 0, 9,15.00,30.00,SummerDesignDay
8,28.8278234860799
831,24.0031484045364
1912,16.
2,1, 7,21, 0, 9,30.00,45.00,SummerDesignDay
8,29.1460734860799
831,24.002960360031
1912,16.
2,1, 7,21, 0, 9,45.00,60.00,SummerDesignDay
8,29.4643234860799
831,24.0028301822417
1912,16.
2,1, 7,21, 0,10, 0.00,15.00,SummerDesignDay
8,29.7490734860799
831,24.0027675835334
1912,16.
2,1, 7,21, 0,10,15.00,30.00,SummerDesignDay
8,30.0338234860799
831,24.0027409268394
1912,16.
2,1, 7,21, 0,10,30.00,45.00,SummerDesignDay
8,30.3185734860799
831,24.0027364198061
1912,16.
2,1, 7,21, 0,10,45.00,60.00,SummerDesignDay
8,30.6033234860799
831,24.0027404729043
1912,16.
2,1, 7,21, 0,11, 0.00,15.00,SummerDesignDay
8,30.8545734860799
831,24.0027403430975
1912,16.
2,1, 7,21, 0,11,15.00,30.00,SummerDesignDay
8,31.1058234860799
831,24.0027384012295
1912,16.
2,1, 7,21, 0,11,30.00,45.00,SummerDesignDay
8,31.3570734860799
831,24.0027238192257
1912,16.
2,1, 7,21, 0,11,45.00,60.00,SummerDesignDay
8,31.6083234860799
831,24.002702669121
1912,16.
2,1, 7,21, 0,12, 0.00,15.00,SummerDesignDay
8,31.7758234860799
831,24.0026804768959
1912,16.
2,1, 7,21, 0,12,15.00,30.00,SummerDesignDay
8,31.9433234860799
831,24.0026611565745
1912,16.
2,1, 7,21, 0,12,30.00,45.00,SummerDesignDay
8,32.1108234860799
831,24.0026689892051
1912,16.
2,1, 7,21, 0,12,45.00,60.00,SummerDesignDay
8,32.2783234860799
831,24.0026826231672
1912,16.
2,1, 7,21, 0,13, 0.00,15.00,SummerDesignDay
8,32.4123234860799
831,24.0026912466197
1912,16.
2,1, 7,21, 0,13,15.00,30.00,SummerDesignDay
8,32.5463234860799
831,24.0027026474333
1912,16.
2,1, 7,21, 0,13,30.00,45.00,SummerDesignDay
8,32.6803234860799
831,24.0027563459035
1912,16.
2,1, 7,21, 0,13,45.00,60.00,SummerDesignDay
8,32.8143234860799
831,24.0028241085362
1912,16.
2,1, 7,21, 0,14, 0.00,15.00,SummerDesignDay
8,32.8980734860799
831,24.002874960292
1912,16.
2,1, 7,21, 0,14,15.00,30.00,SummerDesignDay
8,32.9818234860799
831,24.0029011728726
1912,16.
2,1, 7,21, 0,14,30.00,45.00,SummerDesignDay
8,33.0655734860799
831,24.0029038035684
1912,16.
2,1, 7,21, 0,14,45.00,60.00,SummerDesignDay
8,33.1493234860799
831,24.0021272217396
1912,16.
2,1, 7,21, 0,15, 0.00,15.00,SummerDesignDay
8,33.1493234860799
831,24.0027426966163
1912,16.
2,1, 7,21, 0,15,15.00,30.00,SummerDesignDay
8,33.1493234860799
831,24.0020875631629
1912,16.
2,1, 7,21, 0,15,30.00,45.00,SummerDesignDay
8,33.1493234860799
831,24.0026184059705
1912,16.
2,1, 7,21, 0,15,45.00,60.00,SummerDesignDay
8,33.1493234860799
831,24.0019702332577
1912,16.
2,1, 7,21, 0,16, 0.00,15.00,SummerDesignDay
8,33.0488234860799
831,24.0025404912626
1912,16.
2,1, 7,21, 0,16,15.00,30.00,SummerDesignDay
8,32.9483234860799
831,24.0019419447034
1912,16.
2,1, 7,21, 0,16,30.00,45.00,SummerDesignDay
8,32.8478234860799
831,24.0025139641526
1912,16.
2,1, 7,21, 0,16,45.00,60.00,SummerDesignDay
8,32.7473234860799
831,24.001912654452
1912,16.
2,1, 7,21, 0,17, 0.00,15.00,SummerDesignDay
8,32.6133234860799
831,24.0024912166159
1912,16.
2,1, 7,21, 0,17,15.00,30.00,SummerDesignDay
8,32.4793234860799
831,24.0019057308929
1912,16.
2,1, 7,21, 0,17,30.00,45.00,SummerDesignDay
8,32.3453234860799
831,24.0025244232709
1912,16.
2,1, 7,21, 0,17,45.00,60.00,SummerDesignDay
8,32.2113234860799
831,24.0019231548177
1912,16.
2,1, 7,21, 0,18, 0.00,15.00,SummerDesignDay
8,32.0438234860799
831,24.0025016230908
1912,16.
2,1, 7,21, 0,18,15.00,30.00,SummerDesignDay
8,31.8763234860799
831,24.0025552524473
1912,16.
2,1, 7,21, 0,18,30.00,45.00,SummerDesignDay
8,31.7088234860799
831,24.0024788953967
1912,16.
2,1, 7,21, 0,18,45.00,60.00,SummerDesignDay
8,31.5413234860799
831,24.00237501666
1912,16.
2,1, 7,21, 0,19, 0.00,15.00,SummerDesignDay
8,31.2900734860799
831,24.0022822793949
1912,16.
2,1, 7,21, 0,19,15.00,30.00,SummerDesignDay
8,31.0388234860799
831,24.002183551646
1912,16.
2,1, 7,21, 0,19,30.00,45.00,SummerDesignDay
8,30.7875734860799
831,24.0021108231547
1912,16.
2,1, 7,21, 0,19,45.00,60.00,SummerDesignDay
8,30.5363234860799
831,24.0020443469657
1912,16.
2,1, 7,21, 0,20, 0.00,15.00,SummerDesignDay
8,30.3520734860799
831,24.0020315680672
1912,16.
2,1, 7,21, 0,20,15.00,30.00,SummerDesignDay
8,30.1678234860799
831,24.0020962446441
1912,16.
2,1, 7,21, 0,20,30.00,45.00,SummerDesignDay
8,29.9835734860799
831,24.0021536114399
1912,16.
2,1, 7,21, 0,20,45.00,60.00,SummerDesignDay
8,29.7993234860799
831,24.0021855955424
1912,16.
2,1, 7,21, 0,21, 0.00,15.00,SummerDesignDay
8,29.6485734860799
831,24.0022055645714
1912,16.
2,1, 7,21, 0,21,15.00,30.00,SummerDesignDay
8,29.4978234860799
831,24.0022249188603
1912,16.
2,1, 7,21, 0,21,30.00,45.00,SummerDesignDay
8,29.3470734860799
831,24.0022497079851
1912,16.
2,1, 7,21, 0,21,45.00,60.00,SummerDesignDay
8,29.1963234860799
831,24.0022755011672
1912,16.
2,1, 7,21, 0,22, 0.00,15.00,SummerDesignDay
8,29.0455734860799
831,24.002297897239
1912,16.
2,1, 7,21, 0,22,15.00,30.00,SummerDesignDay
8,28.8948234860799
831,24.0023113948274
1912,16.
2,1, 7,21, 0,22,30.00,45.00,SummerDesignDay
8,28.7440734860799
831,24.0023013651022
1912,16.
2,1, 7,21, 0,22,45.00,60.00,SummerDesignDay
8,28.5933234860799
831,24.0022845402056
1912,16.
2,1, 7,21, 0,23, 0.00,15.00,SummerDesignDay
8,28.4760734860799
831,25.6114386017258
1912,30.
2,1, 7,21, 0,23,15.00,30.00,SummerDesignDay
8,28.3588234860799
831,26.3696022623985
1912,30.
2,1, 7,21, 0,23,30.00,45.00,SummerDesignDay
8,28.2415734860799
831,26.5480117786324
1912,30.
2,1, 7,21, 0,23,45.00,60.00,SummerDesignDay
8,28.1243234860799
831,25.7060200317946
1912,30.
2,1, 7,21, 0,24, 0.00,15.00,SummerDesignDay
8,28.0070734860799
831,26.6103687411416
1912,30.
2,1, 7,21, 0,24,15.00,30.00,SummerDesignDay
8,27.8898234860799
831,26.5052000448483
1912,30.
2,1, 7,21, 0,24,30.00,45.00,SummerDesignDay
8,27.7725734860799
831,25.7672934623643
1912,30.
2,1, 7,21, 0,24,45.00,60.00,SummerDesignDay
8,27.6553234860799
831,26.6782661296568
1912,30.
1,Miami Intl Ap FL USA TMY3 WMO#=722020,  25.82, -80.30,  -5.00,  11.00
2,1, 6,20, 1, 1, 0.00,15.00,Sunday         
8,25.9243234860799
831,26.8278949118171
1912,30.
2,1, 6,20, 1, 1,15.00,30.00,Sunday         
8,25.7993234860799
831,26.7973536171863
1912,30.
2,1, 6,20, 1, 1,30.00,45.00,Sunday         
8,25.6743234860799
831,26.755049381365
1912,30.
2,1, 6,20, 1, 1,45.00,60.00,Sunday         
8,25.5493234860799
831,26.7069736030955
1912,30.
2,1, 6,20, 1, 2, 0.00,15.00,Sunday         
8,25.5493234860799
831,26.6829125644476
1912,30.
2,1, 6,20, 1, 2,15.00,30.00,Sunday         
8,25.5493234860799
831,26.6866332131647
1912,30.
2,1, 6,20, 1, 2,30.00,45.00,Sunday         
8,25.5493234860799
831,26.708473595287
1912,30.
2,1, 6,20, 1, 2,45.00,60.00,Sunday         
8,25.5493234860799
831,26.7364717737402
1912,30.
2,1, 6,20, 1, 3, 0.00,15.00,Sunday         
8,25.5493234860799
831,26.7454672476118
1912,30.
2,1, 6,20, 1, 3,15.00,30.00,Sunday         
8,25.5493234860799
831,26.7342539744625
1912,30.
2,1, 6,20, 1, 3,30.00,45.00,Sunday         
8,25.5493234860799
831,26.7139885594073
1912,30.
2,1, 6,20, 1, 3,45.00,60.00,Sunday         
8,25.5493234860799
831,26.6923657311462
1912,30.
2,1, 6,20, 1, 4, 0.00,15.00,Sunday         
8,25.3993234860799
831,26.6674296167915
1912,30.
2,1, 6,20, 1, 4,15.00,30.00,Sunday         
8,25.2493234860799
831,26.6373888755732
1912,30.
2,1, 6,20, 1, 4,30.00,45.00,Sunday         
8,25.0993234860799
831,26.6044885314902
1912,30.
2,1, 6,20, 1, 4,45.00,60.00,Sunday         
8,24.9493234860799
831,26.5676381410443
1912,30.
2,1, 6,20, 1, 5, 0.00,15.00,Sunday         
8,24.7993234860799
831,26.5294354680651
1912,30.
2,1, 6,20, 1, 5,15.00,30.00,Sunday         
8,24.6493234860799
831,26.4920483670546
1912,30.
2,1, 6,20, 1, 5,30.00,45.00,Sunday         
8,24.4993234860799
831,26.4551670887767
1912,30.
2,1, 6,20, 1, 5,45.00,60.00,Sunday         
8,24.3493234860799
831,26.417717454482
1912,30.
2,1, 6,20, 1, 6, 0.00,15.00,Sunday         
8,24.4993234860799
831,26.4252981844363
1912,30.
2,1, 6,20, 1, 6,15.00,30.00,Sunday         
8,24.6493234860799
831,26.4498675725439
1912,30.
2,1, 6,20, 1, 6,30.00,45.00,Sunday         
8,24.7993234860799
831,26.5294717548108
1912,30.
2,1, 6,20, 1, 6,45.00,60.00,Sunday         
8,24.9493234860799
831,26.6314992370757
1912,30.
2,1, 6,20, 1, 7, 0.00,15.00,Sunday         
8,25.0993234860799
831,26.7279429267224
1912,19.4787159821442
2,1, 6,20, 1, 7,15.00,30.00,Sunday         
8,25.2493234860799
831,26.7839071136135
1912,19.3658831818495
2,1, 6,20, 1, 7,30.00,45.00,Sunday         
8,25.3993234860799
831,26.8499222202034
1912,16.5200287309487
2,1, 6,20, 1, 7,45.00,60.00,Sunday         
8,25.5493234860799
831,26.9265069000418
1912,19.9557751157511
2,1, 6,20, 1, 8, 0.00,15.00,Sunday         
8,25.8243234860799
831,27.0074203712204
1912,17.3844339724988
2,1, 6,20, 1, 8,15.00,30.00,Sunday         
8,26.0993234860799
831,25.6616930589897
1912,17.3945231803388
2,1, 6,20, 1, 8,30.00,45.00,Sunday         
8,26.3743234860799
831,25.3317728560066
1912,16.6206491388172
2,1, 6,20, 1, 8,45.00,60.00,Sunday         
8,26.6493234860799
831,26.3296103214461
1912,18.3587183731101
2,1, 6,20, 1, 9, 0.00,15.00,Sunday         
8,26.7743234860799
831,26.4440218212327
1912,16.0078851322971
2,1, 6,20, 1, 9,15.00,30.00,Sunday         
8,26.8993234860799
831,25.7737734686509
1912,21.4357783599017
2,1, 6,20, 1, 9,30.00,45.00,Sunday         
8,27.0243234860799
831,26.7357317075178
1912,21.4162989539958
2,1, 6,20, 1, 9,45.00,60.00,Sunday         
8,27.1493234860799
831,25.8378252483044
1912,18.0972966487846
2,1, 6,20, 1,10, 0.00,15.00,Sunday         
8,26.7493234860799
831,25.7132722790631
1912,22.0699129383744
2,1, 6,20, 1,10,15.00,30.00,Sunday         
8,26.3493234860799
831,26.7808817512456
1912,16.5969449853247
2,1, 6,20, 1,10,30.00,45.00,Sunday         
8,25.9493234860799
831,25.8804949916516
1912,16.1604403730656
2,1, 6,20, 1,10,45.00,60.00,Sunday         
8,25.5493234860799
831,25.8299491386092
1912,19.7588426170412
2,1, 6,20, 1,11, 0.00,15.00,Sunday         
8,26.3743234860799
831,26.9509601793212
1912,23.8278505734016
2,1, 6,20, 1,11,15.00,30.00,Sunday         
8,27.1993234860799
831,26.061795455874
1912,19.8210301123501
2,1, 6,20, 1,11,30.00,45.00,Sunday         
8,28.0243234860799
831,26.0292968146845
1912,21.6807981631103
2,1, 6,20, 1,11,45.00,60.00,Sunday         
8,28.8493234860799
831,27.1923957194046
1912,18.7187308851127
2,1, 6,20, 1,12, 0.00,15.00,Sunday         
8,28.8493234860799
831,26.3281254685333
1912,16.0966026113421
2,1, 6,20, 1,12,15.00,30.00,Sunday         
8,28.8493234860799
831,26.268146850649
1912,16.0329415922985
2,1, 6,20, 1,12,30.00,45.00,Sunday         
8,28.8493234860799
831,27.432010131395
1912,16.0171962610733
2,1, 6,20, 1,12,45.00,60.00,Sunday         
8,28.8493234860799
831,26.2859129062475
1912,17.575898679882
2,1, 6,20, 1,13, 0.00,15.00,Sunday         
8,28.8493234860799
831,26.4171001862544
1912,18.8037124417329
2,1, 6,20, 1,13,15.00,30.00,Sunday         
8,28.8493234860799
831,27.7063622280717
1912,23.6038823790522
2,1, 6,20, 1,13,30.00,45.00,Sunday         
8,28.8493234860799
831,26.4109063500961
1912,18.439616772983
2,1, 6,20, 1,13,45.00,60.00,Sunday         
8,28.8493234860799
831,26.59361025304
1912,22.2860820769877
2,1, 6,20, 1,14, 0.00,15.00,Sunday         
8,28.8493234860799
831,27.819009324363
1912,20.5953184806751
2,1, 6,20, 1,14,15.00,30.00,Sunday         
8,28.8493234860799
831,26.3064379035807
1912,16.0501939748723
2,1, 6,20, 1,14,30.00,45.00,Sunday         
8,28.8493234860799
831,26.5603549516138
1912,21.8138486510967
2,1, 6,20, 1,14,45.00,60.00,Sunday         
8,28.8493234860799
831,27.767535984044
1912,23.2762496743729
2,1, 6,20, 1,15, 0.00,15.00,Sunday         
8,28.8493234860799
831,26.2418544336243
1912,20.0263821213704
2,1, 6,20, 1,15,15.00,30.00,Sunday         
8,28.8493234860799
831,26.4128304399495
1912,22.7575463533361
2,1, 6,20, 1,15,30.00,45.00,Sunday         
8,28.8493234860799
831,27.5725971684863
1912,22.3742266473403
2,1, 6,20, 1,15,45.00,60.00,Sunday         
8,28.8493234860799
831,26.1555844150578
1912,19.4531768995896
2,1, 6,20, 1,16, 0.00,15.00,Sunday         
8,28.6993234860799
831,26.3653444938617
1912,23.6885671119802
2,1, 6,20, 1,16,15.00,30.00,Sunday         
8,28.5493234860799
831,27.5011088274742
1912,18.7696588651375
2,1, 6,20, 1,16,30.00,45.00,Sunday         
8,28.3993234860799
831,25.991950253189
1912,21.5680006226897
2,1, 6,20, 1,16,45.00,60.00,Sunday         
8,28.2493234860799
831,26.2283333804646
1912,21.6266987464714
2,1, 6,20, 1,17, 0.00,15.00,Sunday         
8,28.2493234860799
831,27.3438246966852
1912,17.3004909150962
2,1, 6,20, 1,17,15.00,30.00,Sunday         
8,28.2493234860799
831,25.9381482133218
1912,17.0856015702133
2,1, 6,20, 1,17,30.00,45.00,Sunday         
8,28.2493234860799
831,26.1008346223966
1912,20.7398062250034
2,1, 6,20, 1,17,45.00,60.00,Sunday         
8,28.2493234860799
831,27.1339263553507
1912,19.0938163208656
2,1, 6,20, 1,18, 0.00,15.00,Sunday         
8,28.2493234860799
831,25.8527242963435
1912,16.2095660799244
2,1, 6,20, 1,18,15.00,30.00,Sunday         
8,28.2493234860799
831,25.8308510089463
1912,19.852738748995
2,1, 6,20, 1,18,30.00,45.00,Sunday         
8,28.2493234860799
831,26.784242564396
1912,16.9061584533301
2,1, 6,20, 1,18,45.00,60.00,Sunday         
8,28.2493234860799
831,25.4860740843073
1912,22.9973838304996
2,1, 6,20, 1,19, 0.00,15.00,Sunday         
8,28.2493234860799
831,25.4532081682586
1912,22.792049978545
2,1, 6,20, 1,19,15.00,30.00,Sunday         
8,28.2493234860799
831,26.4024214997737
1912,22.1652331929862
2,1, 6,20, 1,19,30.00,45.00,Sunday         
8,28.2493234860799
831,26.7552974156728
1912,22.2060157840659
2,1, 6,20, 1,19,45.00,60.00,Sunday         
8,28.2493234860799
831,27.0277314922556
1912,20.9518383689719
2,1, 6,20, 1,20, 0.00,15.00,Sunday         
8,27.6993234860799
831,25.369105330394
1912,16.879447737128
2,1, 6,20, 1,20,15.00,30.00,Sunday         
8,27.1493234860799
831,25.2556411974825
1912,23.0668806921154
2,1, 6,20, 1,20,30.00,45.00,Sunday         
8,26.5993234860799
831,26.0945998536702
1912,19.8261087970898
2,1, 6,20, 1,20,45.00,60.00,Sunday         
8,26.0493234860799
831,26.3704298395527
1912,18.2962193466623
2,1, 6,20, 1,21, 0.00,15.00,Sunday         
8,26.0493234860799
831,26.5947462761091
1912,16.7045127506757
2,1, 6,20, 1,21,15.00,30.00,Sunday         
8,26.0493234860799
831,26.7505810519306
1912,16.4552899779285
2,1, 6,20, 1,21,30.00,45.00,Sunday         
8,26.0493234860799
831,26.8511186372326
1912,22.3215224674574
2,1, 6,20, 1,21,45.00,60.00,Sunday         
8,26.0493234860799
831,26.9022439595209
1912,22.1986257465944
2,1, 6,20, 1,22, 0.00,15.00,Sunday         
8,26.1993234860799
831,26.956073575775
1912,17.1107399642528
2,1, 6,20, 1,22,15.00,30.00,Sunday         
8,26.3493234860799
831,26.9837081865371
1912,18.8959381348243
2,1, 6,20, 1,22,30.00,45.00,Sunday         
8,26.4993234860799
831,26.9925763256853
1912,20.7986392080245
2,1, 6,20, 1,22,45.00,60.00,Sunday         
8,26.6493234860799
831,26.9996841592909
1912,16.0397101805431
2,1, 6,20, 1,23, 0.00,15.00,Sunday         
8,26.4993234860799
831,26.9931528815899
1912,30.
2,1, 6,20, 1,23,15.00,30.00,Sunday         
8,26.3493234860799
831,26.9789140961823
1912,30.
2,1, 6,20, 1,23,30.00,45.00,Sunday         
8,26.1993234860799
831,26.9573443357322
1912,30.
2,1, 6,20, 1,23,45.00,60.00,Sunday         
8,26.0493234860799
831,26.9315416227063
1912,30.
2,1, 6,20, 1,24, 0.00,15.00,Sunday         
8,26.0493234860799
831,26.9184120174086
1912,30.
2,1, 6,20, 1,24,15.00,30.00,Sunday         
8,26.0493234860799
831,26.8981864621792
1912,30.
2,1, 6,20, 1,24,30.00,45.00,Sunday         
8,26.0493234860799
831,26.8981617237023
1912,30.
2,1, 6,20, 1,24,45.00,60.00,Sunday         
8,26.0493234860799
831,26.8987936318449
1912,30.
2,2, 6,21, 1, 1, 0.00,15.00,Monday         
8,26.0493234860799
831,26.9288128580649
1912,30.
2,2, 6,21, 1, 1,15.00,30.00,Monday         
8,26.0493234860799
831,26.9585215942816
1912,30.
2,2, 6,21, 1, 1,30.00,45.00,Monday         
8,26.0493234860799
831,26.9755464734635
1912,30.
2,2, 6,21, 1, 1,45.00,60.00,Monday         
8,26.0493234860799
831,26.9837483084384
1912,30.
2,2, 6,21, 1, 2, 0.00,15.00,Monday         
8,26.0493234860799
831,26.9851569711993
1912,30.
2,2, 6,21, 1, 2,15.00,30.00,Monday         
8,26.0493234860799
831,26.9827914073276
1912,30.
2,2, 6,21, 1, 2,30.00,45.00,Monday         
8,26.0493234860799
831,26.9788136890502
1912,30.
2,2, 6,21, 1, 2,45.00,60.00,Monday         
8,26.0493234860799
831,26.9739020804341
1912,30.
2,2, 6,21, 1, 3, 0.00,15.00,Monday         
8,26.0493234860799
831,26.9651356901807
1912,30.
2,2, 6,21, 1, 3,15.00,30.00,Monday         
8,26.0493234860799
831,26.9518961340632
1912,30.
2,2, 6,21, 1, 3,30.00,45.00,Monday         
8,26.0493234860799
831,26.9370963935048
1912,30.
2,2, 6,21, 1, 3,45.00,60.00,Monday         
8,26.0493234860799
831,26.9196843428666
1912,30.
2,2, 6,21, 1, 4, 0.00,15.00,Monday         
8,25.9243234860799
831,26.8982626751138
1912,30.
2,2, 6,21, 1, 4,15.00,30.00,Monday         
8,25.7993234860799
831,26.8754146151387
1912,30.
2,2, 6,21, 1, 4,30.00,45.00,Monday         
8,25.6743234860799
831,26.8519709915912
1912,30.