Program Version,EnergyPlus-Windows-64 8.0.0.008, YMD=2018.11.12 22:40
1,5,Environment Title[],Latitude[deg],Longitude[deg],Time Zone[],Elevation[m]
2,6,Day of Simulation[],Month[],Day of Month[],DST Indicator[1=yes 0=no],Hour[],StartMinute[],EndMinute[],DayType
3,3,Cumulative Day of Simulation[],Month[],Day of Month[],DST Indicator[1=yes 0=no],DayType  ! When Daily Meters Requested
4,2,Cumulative Days of Simulation[],Month[]  ! When Monthly Meters Requested
5,1,Cumulative Days of Simulation[] ! When Run Period Meters Requested
59,1,Electricity:Facility [J] !Hourly
1757,1,ElectricityNet:Facility [J] !Hourly
702,1,Gas:Facility [J] !Hourly
89,1,InteriorLights:Electricity [J] !Hourly
444,1,InteriorEquipment:Electricity [J] !Hourly
End of Data Dictionary
1,MIAMI INTL AP ANN HTG 99.6% CONDNS DB,  25.82, -80.30,  -5.00,  11.00
2,1, 1,21, 0, 1, 0.00,60.00,WinterDesignDay
59,99239918.814147
89,0.0
444,0.0
702,15343598.1594232
1757,99239918.814147
2,1, 1,21, 0, 2, 0.00,60.00,WinterDesignDay
59,92537695.0594049
89,0.0
444,0.0
702,15113749.9143273
1757,92537695.0594049
2,1, 1,21, 0, 3, 0.00,60.00,WinterDesignDay
59,70598072.8652824
89,0.0
444,0.0
702,11704529.7733525
1757,70598072.8652824
2,1, 1,21, 0, 4, 0.00,60.00,WinterDesignDay
59,99736192.2710594
89,0.0
444,0.0
702,15401962.9937449
1757,99736192.2710593
2,1, 1,21, 0, 5, 0.00,60.00,WinterDesignDay
59,92970528.3202418
89,0.0
444,0.0
702,15165492.8732763
1757,92970528.3202418
2,1, 1,21, 0, 6, 0.00,60.00,WinterDesignDay
59,70860947.2276751
89,0.0
444,0.0
702,11737063.3162222
1757,70860947.2276751
2,1, 1,21, 0, 7, 0.00,60.00,WinterDesignDay
59,172083130.082092
89,0.0
444,0.0
702,18171672.1683216
1757,172083130.082092
2,1, 1,21, 0, 8, 0.00,60.00,WinterDesignDay
59,138647463.219275
89,0.0
444,0.0
702,16873904.4615162
1757,138647463.219275
2,1, 1,21, 0, 9, 0.00,60.00,WinterDesignDay
59,137127285.080515
89,0.0
444,0.0
702,16574956.687655
1757,137127285.080515
2,1, 1,21, 0,10, 0.00,60.00,WinterDesignDay
59,136149868.911681
89,0.0
444,0.0
702,16448894.4372916
1757,136149868.911681
2,1, 1,21, 0,11, 0.00,60.00,WinterDesignDay
59,135732473.50964
89,0.0
444,0.0
702,16379423.932537
1757,135732473.50964
2,1, 1,21, 0,12, 0.00,60.00,WinterDesignDay
59,135258676.229183
89,0.0
444,0.0
702,16335898.198225
1757,135258676.229183
2,1, 1,21, 0,13, 0.00,60.00,WinterDesignDay
59,135075560.336449
89,0.0
444,0.0
702,16303965.4340238
1757,135075560.336449
2,1, 1,21, 0,14, 0.00,60.00,WinterDesignDay
59,134964071.100863
89,0.0
444,0.0
702,16278571.1043056
1757,134964071.100863
2,1, 1,21, 0,15, 0.00,60.00,WinterDesignDay
59,134975736.272447
89,0.0
444,0.0
702,20348690.3359111
1757,134975736.272447
2,1, 1,21, 0,16, 0.00,60.00,WinterDesignDay
59,134957467.143161
89,0.0
444,0.0
702,16239132.2660126
1757,134957467.143161
2,1, 1,21, 0,17, 0.00,60.00,WinterDesignDay
59,134786115.405992
89,0.0
444,0.0
702,20289085.9581731
1757,134786115.405992
2,1, 1,21, 0,18, 0.00,60.00,WinterDesignDay
59,142225536.911787
89,0.0
444,0.0
702,16207482.8057846
1757,142225536.911787
2,1, 1,21, 0,19, 0.00,60.00,WinterDesignDay
59,107214351.435536
89,0.0
444,0.0
702,13447925.3947955
1757,107214351.435536
2,1, 1,21, 0,20, 0.00,60.00,WinterDesignDay
59,100934597.073013
89,0.0
444,0.0
702,15000802.8159178
1757,100934597.073013
2,1, 1,21, 0,21, 0.00,60.00,WinterDesignDay
59,79936707.0404027
89,0.0
444,0.0
702,11592613.2577739
1757,79936707.0404027
2,1, 1,21, 0,22, 0.00,60.00,WinterDesignDay
59,108822367.844016
89,0.0
444,0.0
702,15253721.3329694
1757,108822367.844016
2,1, 1,21, 0,23, 0.00,60.00,WinterDesignDay
59,102262529.485881
89,0.0
444,0.0
702,15044121.3169263
1757,102262529.485881
2,1, 1,21, 0,24, 0.00,60.00,WinterDesignDay
59,80561745.5831931
89,0.0
444,0.0
702,11663121.5818454
1757,80561745.5831931
1,MIAMI INTL AP ANN CLG .4% CONDNS DB=>MWB,  25.82, -80.30,  -5.00,  11.00
2,1, 7,21, 0, 1, 0.00,60.00,SummerDesignDay
59,527492497.677546
89,158309273.450227
444,224813060.552967
702,4597200.
1757,527492497.677546
2,1, 7,21, 0, 2, 0.00,60.00,SummerDesignDay
59,538685955.330656
89,158309273.450227
444,224813060.552967
702,4597200.
1757,538685955.330656
2,1, 7,21, 0, 3, 0.00,60.00,SummerDesignDay
59,494571774.501017
89,158309273.450227
444,224813060.552967
702,4597200.
1757,494571774.501017
2,1, 7,21, 0, 4, 0.00,60.00,SummerDesignDay
59,541935143.571007
89,158309273.450227
444,224813060.552967
702,4597200.
1757,541935143.571007
2,1, 7,21, 0, 5, 0.00,60.00,SummerDesignDay
59,538844750.002326
89,158309273.450227
444,224813060.552967
702,4597200.
1757,538844750.002326
2,1, 7,21, 0, 6, 0.00,60.00,SummerDesignDay
59,506570829.08675
89,157132290.901714
444,224813060.552967
702,4597200.
1757,506570829.08675
2,1, 7,21, 0, 7, 0.00,60.00,SummerDesignDay
59,642376469.884715
89,130547525.051546
444,224813060.552967
702,4597200.
1757,642376469.884715
2,1, 7,21, 0, 8, 0.00,60.00,SummerDesignDay
59,742756075.015115
89,125116957.414271
444,224813060.552967
702,4597200.
1757,742756075.015115
2,1, 7,21, 0, 9, 0.00,60.00,SummerDesignDay
59,729171852.397607
89,124547812.705664
444,224813060.552967
702,4597200.
1757,729171852.397607
2,1, 7,21, 0,10, 0.00,60.00,SummerDesignDay
59,739095470.736699
89,124547812.705664
444,224813060.552967
702,4597200.
1757,739095470.736699
2,1, 7,21, 0,11, 0.00,60.00,SummerDesignDay
59,749919634.829599
89,124547812.705664
444,224813060.552967
702,4597200.
1757,749919634.8296
2,1, 7,21, 0,12, 0.00,60.00,SummerDesignDay
59,752126344.990188
89,124547812.705664
444,224813060.552967
702,17570787.4859258
1757,752126344.990188
2,1, 7,21, 0,13, 0.00,60.00,SummerDesignDay
59,754401229.336797
89,124547812.705664
444,224813060.552967
702,13484681.4051788
1757,754401229.336797
2,1, 7,21, 0,14, 0.00,60.00,SummerDesignDay
59,772118985.809079
89,124547812.705664
444,224813060.552967
702,17871033.327161
1757,772118985.809078
2,1, 7,21, 0,15, 0.00,60.00,SummerDesignDay
59,800984849.257715
89,124547812.705664
444,224813060.552967
702,13121400.1941214
1757,800984849.257715
2,1, 7,21, 0,16, 0.00,60.00,SummerDesignDay
59,801468730.579469
89,124547812.705664
444,224813060.552967
702,12383049.5508416
1757,801468730.579469
2,1, 7,21, 0,17, 0.00,60.00,SummerDesignDay
59,794079923.979234
89,124547812.705664
444,224813060.552967
702,13840825.8690127
1757,794079923.979234
2,1, 7,21, 0,18, 0.00,60.00,SummerDesignDay
59,752359936.303691
89,125492201.447479
444,224813060.552967
702,8735748.74735925
1757,752359936.303691
2,1, 7,21, 0,19, 0.00,60.00,SummerDesignDay
59,718184451.936121
89,140309001.304991
444,224813060.552967
702,4597200.
1757,718184451.936121
2,1, 7,21, 0,20, 0.00,60.00,SummerDesignDay
59,726833850.284296
89,158309273.450227
444,224813060.552967
702,8661716.78591045
1757,726833850.284296
2,1, 7,21, 0,21, 0.00,60.00,SummerDesignDay
59,709409521.977758
89,158309273.450227
444,224813060.552967
702,4597200.
1757,709409521.977758
2,1, 7,21, 0,22, 0.00,60.00,SummerDesignDay
59,695998018.135909
89,158309273.450227
444,224813060.552967
702,4597200.
1757,695998018.135909
2,1, 7,21, 0,23, 0.00,60.00,SummerDesignDay
59,514326672.455378
89,158309273.450227
444,224813060.552967
702,4597200.
1757,514326672.455378
2,1, 7,21, 0,24, 0.00,60.00,SummerDesignDay
59,516656064.186937
89,158309273.450227
444,224813060.552967
702,4597200.
1757,516656064.186937
1,Miami Intl Ap FL USA TMY3 WMO#=722020,  25.82, -80.30,  -5.00,  11.00
2,1, 6,20, 1, 1, 0.00,60.00,Sunday         
59,61035577.042117
89,7915463.67251137
444,33399901.5013581
702,4597200.
1757,61035577.0421169
2,1, 6,20, 1, 2, 0.00,60.00,Sunday         
59,61036294.1179892
89,7915463.67251137
444,33399901.5013581
702,4597200.
1757,61036294.1179892
2,1, 6,20, 1, 3, 0.00,60.00,Sunday         
59,61036294.1179892
89,7915463.67251137
444,33399901.5013581
702,4597200.
1757,61036294.1179892
2,1, 6,20, 1, 4, 0.00,60.00,Sunday         
59,61036294.1179892
89,7915463.67251137
444,33399901.5013581
702,4597200.
1757,61036294.1179892
2,1, 6,20, 1, 5, 0.00,60.00,Sunday         
59,61036294.1179892
89,7915463.67251137
444,33399901.5013581
702,4597200.
1757,61036294.1179892
2,1, 6,20, 1, 6, 0.00,60.00,Sunday         
59,63699067.1265476
89,6713244.11138264
444,41385398.9087341
702,4597200.
1757,63699067.1265476
2,1, 6,20, 1, 7, 0.00,60.00,Sunday         
59,89358818.1515292
89,5777719.36105109
444,41385398.9087341
702,4597200.
1757,89358818.1515292
2,1, 6,20, 1, 8, 0.00,60.00,Sunday         
59,142728008.062124
89,5453896.20546521
444,41385398.9087341
702,4597200.
1757,142728008.062124
2,1, 6,20, 1, 9, 0.00,60.00,Sunday         
59,175082873.817219
89,5372128.7777835
444,41385398.9087341
702,4597200.
1757,175082873.817219
2,1, 6,20, 1,10, 0.00,60.00,Sunday         
59,139913682.386892
89,5370038.36600498
444,41385398.9087341
702,4597200.
1757,139913682.386892
2,1, 6,20, 1,11, 0.00,60.00,Sunday         
59,168553616.038593
89,5370038.36600498
444,41385398.9087341
702,4597200.
1757,168553616.038593
2,1, 6,20, 1,12, 0.00,60.00,Sunday         
59,205268711.65777
89,5370038.36600498
444,41385398.9087341
702,4597200.
1757,205268711.65777
2,1, 6,20, 1,13, 0.00,60.00,Sunday         
59,153277433.406043
89,5370038.36600498
444,41385398.9087341
702,4597200.
1757,153277433.406043
2,1, 6,20, 1,14, 0.00,60.00,Sunday         
59,162791648.941429
89,5370038.36600498
444,41385398.9087341
702,4597200.
1757,162791648.941429
2,1, 6,20, 1,15, 0.00,60.00,Sunday         
59,166463649.528832
89,5370038.36600498
444,41385398.9087341
702,4597200.
1757,166463649.528832
2,1, 6,20, 1,16, 0.00,60.00,Sunday         
59,171243777.398895
89,5370038.36600498
444,41385398.9087341
702,4597200.
1757,171243777.398895
2,1, 6,20, 1,17, 0.00,60.00,Sunday         
59,134243511.198631
89,5405031.473076
444,41385398.9087341
702,4597200.
1757,134243511.198631
2,1, 6,20, 1,18, 0.00,60.00,Sunday         
59,168412741.537222
89,6523459.41668429
444,33399901.5013581
702,4597200.
1757,168412741.537222
2,1, 6,20, 1,19, 0.00,60.00,Sunday         
59,73250959.6142803
89,7587251.21305527
444,33399901.5013581
702,4597200.
1757,73250959.6142803
2,1, 6,20, 1,20, 0.00,60.00,Sunday         
59,153656268.423609
89,7915463.67251137
444,33399901.5013581
702,4597200.
1757,153656268.423609
2,1, 6,20, 1,21, 0.00,60.00,Sunday         
59,124711172.224315
89,7915463.67251137
444,33399901.5013581
702,4597200.
1757,124711172.224315
2,1, 6,20, 1,22, 0.00,60.00,Sunday         
59,107614132.510794
89,7915463.67251137
444,33399901.5013581
702,4597200.
1757,107614132.510794
2,1, 6,20, 1,23, 0.00,60.00,Sunday         
59,108906297.092917
89,7915463.67251137
444,33399901.5013581
702,4597200.
1757,108906297.092917
2,1, 6,20, 1,24, 0.00,60.00,Sunday         
59,61036294.1179892
89,7915463.67251137
444,33399901.5013581
702,4597200.
1757,61036294.1179892
2,2, 6,21, 1, 1, 0.00,60.00,Monday         
59,72340000.9157607
89,7915463.67251137
444,44533202.0018108
702,4597200.
1757,72340000.9157607
2,2, 6,21, 1, 2, 0.00,60.00,Monday         
59,72340000.9157607
89,7915463.67251137
444,44533202.0018108
702,4597200.
1757,72340000.9157607
2,2, 6,21, 1, 3, 0.00,60.00,Monday         
59,72340000.9157607
89,7915463.67251137
444,44533202.0018108
702,4597200.
1757,72340000.9157607
2,2, 6,21, 1, 4, 0.00,60.00,Monday         
59,72340000.9157607
89,7915463.67251137
444,44533202.0018108
702,4597200.
1757,72340000.9157607
2,2, 6,21, 1, 5, 0.00,60.00,Monday         
59,108364990.672622
89,15830927.3450227
444,44533202.0018108
702,4597200.
1757,108364990.672622
2,2, 6,21, 1, 6, 0.00,60.00,Monday         
59,248852017.638285
89,13460971.0402478
444,55180531.8783121
702,4597200.
1757,248852017.638285
2,2, 6,21, 1, 7, 0.00,60.00,Monday         
59,289457267.126184
89,34963392.6213603
444,95796493.4167736
702,4597200.
1757,289457267.126184
2,2, 6,21, 1, 8, 0.00,60.00,Monday         
59,493770330.189992
89,98129817.9784738
444,204227663.759169
702,4597200.
1757,493770330.189992
2,2, 6,21, 1, 9, 0.00,60.00,Monday         
59,486435698.160411
89,96660690.5880898
444,174055806.616312
702,4597200.
1757,486435698.160411
2,2, 6,21, 1,10, 0.00,60.00,Monday         
59,492210303.179843
89,96660690.5880898
444,167093070.352576
702,4597200.
1757,492210303.179843
2,2, 6,21, 1,11, 0.00,60.00,Monday         
59,516009791.029769
89,96660690.5880898
444,174055806.616312
702,4597200.
1757,516009791.029769
2,2, 6,21, 1,12, 0.00,60.00,Monday         
59,511916079.010981
89,96660690.5880898
444,177667514.306075
702,9024643.14016911
1757,511916079.010981
2,2, 6,21, 1,13, 0.00,60.00,Monday         
59,538268757.006508
89,96660690.5880898
444,179858086.836092
702,17876103.5464484
1757,538268757.006508
2,2, 6,21, 1,14, 0.00,60.00,Monday         
59,520152663.77489
89,96660690.5880898
444,167093070.352576
702,8830918.28977471
1757,520152663.77489
2,2, 6,21, 1,15, 0.00,60.00,Monday         
59,512124092.3288
89,96999359.5112913
444,167093070.352576
702,13011010.1378512
1757,512124092.3288
2,2, 6,21, 1,16, 0.00,60.00,Monday         
59,493318024.420717
89,96961729.6309355
444,177537174.74818
702,13218918.0128517
1757,493318024.420718
2,2, 6,21, 1,17, 0.00,60.00,Monday         
59,361994126.637806
89,55735571.4423995
444,140923939.573165
702,8759856.77249805
1757,361994126.637806
2,2, 6,21, 1,18, 0.00,60.00,Monday         
59,257870620.142505
89,33401809.5151402
444,69106004.4057846
702,8695538.59473819
1757,257870620.142505
2,2, 6,21, 1,19, 0.00,60.00,Monday         
59,247782657.634233
89,37724569.0766118
444,59822356.0541363
702,4597200.
1757,247782657.634233
2,2, 6,21, 1,20, 0.00,60.00,Monday         
59,260089858.35399
89,27302827.8427063
444,59822356.0541363
702,8659468.89928761
1757,260089858.35399
2,2, 6,21, 1,21, 0.00,60.00,Monday         
59,255041451.571961
89,27302827.8427063
444,55180531.8783121
702,4597200.
1757,255041451.571961
2,2, 6,21, 1,22, 0.00,60.00,Monday         
59,144863349.259421
89,13651413.9213531
444,55180531.8783121
702,4597200.
1757,144863349.259421
2,2, 6,21, 1,23, 0.00,60.00,Monday         
59,110715564.877024
89,6825706.96067657
444,55180531.8783121
702,4597200.
1757,110715564.877024
2,2, 6,21, 1,24, 0.00,60.00,Monday         
59,72339865.2674801
89,7915463.67251137
444,44533202.0018108
702,4597200.
1757,72339865.26748
End of Data
 Number of Records Written=         480
