Program Version,EnergyPlus-Windows-64 8.0.0.008, YMD=2018.11.12 22:40
1,5,Environment Title[],Latitude[deg],Longitude[deg],Time Zone[],Elevation[m]
2,6,Day of Simulation[],Month[],Day of Month[],DST Indicator[1=yes 0=no],Hour[],StartMinute[],EndMinute[],DayType
3,3,Cumulative Day of Simulation[],Month[],Day of Month[],DST Indicator[1=yes 0=no],DayType  ! When Daily Report Variables Requested
4,2,Cumulative Days of Simulation[],Month[]  ! When Monthly Report Variables Requested
5,1,Cumulative Days of Simulation[] ! When Run Period Report Variables Requested
8,1,PERIMETER_TOP_ZN_3,Zone Outdoor Air Drybulb Temperature [C] !Each Call
831,1,PERIMETER_TOP_ZN_3,Zone Mean Air Temperature [C] !Each Call
1912,1,CUSTOM_ZONE_CLGT_SETPOINT,Schedule Value [] !Each Call
2097,1,PERIMETER_TOP_ZN_3 VAV BOX OUTLET NODE,System Node Temperature [C] !Each Call
2098,1,PERIMETER_TOP_ZN_3 VAV BOX OUTLET NODE,System Node Mass Flow Rate [kg/s] !Each Call
End of Data Dictionary
1,MIAMI INTL AP ANN HTG 99.6% CONDNS DB,  25.82, -80.30,  -5.00,  11.00
2,1, 1,21, 0, 1, 0.00, 5.00,WinterDesignDay
2097,35.6591276332249
2098,0.241964152852291
2,1, 1,21, 0, 1, 5.00,10.00,WinterDesignDay
2097,17.0043699581608
2098,0.241964152852291
2,1, 1,21, 0, 1,10.00,15.00,WinterDesignDay
2097,24.9603455031214
2098,0.241964152852291
2,1, 1,21, 0, 1, 0.00,15.00,WinterDesignDay
8,8.64932348607993
831,15.5857651132838
1912,30.
2,1, 1,21, 0, 1,15.00,30.00,WinterDesignDay
2097,22.3432377679303
2098,0.241964152852291
8,8.64932348607993
831,15.6000067900925
1912,30.
2,1, 1,21, 0, 1,30.00,33.75,WinterDesignDay
2097,14.0297028266466
2098,0.0
2,1, 1,21, 0, 1,33.75,37.50,WinterDesignDay
2097,13.8878419077721
2098,0.0
2,1, 1,21, 0, 1,37.50,41.25,WinterDesignDay
2097,13.7278500846487
2098,0.0
2,1, 1,21, 0, 1,41.25,45.00,WinterDesignDay
2097,13.5802624784688
2098,0.0
2,1, 1,21, 0, 1,30.00,45.00,WinterDesignDay
8,8.64932348607993
831,14.6836503105519
1912,30.
2,1, 1,21, 0, 1,45.00,50.00,WinterDesignDay
2097,35.7083523776297
2098,0.241964152852291
2,1, 1,21, 0, 1,50.00,55.00,WinterDesignDay
2097,16.993050222606
2098,0.241964152852291
2,1, 1,21, 0, 1,55.00,60.00,WinterDesignDay
2097,24.9743082345868
2098,0.241964152852291
2,1, 1,21, 0, 1,45.00,60.00,WinterDesignDay
8,8.64932348607993
831,15.5857112053518
1912,30.
2,1, 1,21, 0, 2, 0.00,15.00,WinterDesignDay
2097,22.370655747406
2098,0.241964152852291
8,8.64932348607993
831,15.6000041112909
1912,30.
2,1, 1,21, 0, 2,15.00,18.75,WinterDesignDay
2097,14.0273455452126
2098,0.0
2,1, 1,21, 0, 2,18.75,22.50,WinterDesignDay
2097,13.8853479593231
2098,0.0
2,1, 1,21, 0, 2,22.50,26.25,WinterDesignDay
2097,13.7252620643308
2098,0.0
2,1, 1,21, 0, 2,26.25,30.00,WinterDesignDay
2097,13.5775940178839
2098,0.0
2,1, 1,21, 0, 2,15.00,30.00,WinterDesignDay
8,8.64932348607993
831,14.6809216631364
1912,30.
2,1, 1,21, 0, 2,30.00,35.00,WinterDesignDay
2097,35.7530216756429
2098,0.241964152852291
2,1, 1,21, 0, 2,35.00,40.00,WinterDesignDay
2097,16.9822157336419
2098,0.241964152852291
2,1, 1,21, 0, 2,40.00,45.00,WinterDesignDay
2097,24.9866489058818
2098,0.241964152852291
2,1, 1,21, 0, 2,30.00,45.00,WinterDesignDay
8,8.64932348607993
831,15.5856619311585
1912,30.
2,1, 1,21, 0, 2,45.00,60.00,WinterDesignDay
2097,22.3959354977268
2098,0.241964152852291
8,8.64932348607993
831,15.6000020726351
1912,30.
2,1, 1,21, 0, 3, 0.00, 3.75,WinterDesignDay
2097,14.0252179980688
2098,0.0
2,1, 1,21, 0, 3, 3.75, 7.50,WinterDesignDay
2097,13.8830972215667
2098,0.0
2,1, 1,21, 0, 3, 7.50,11.25,WinterDesignDay
2097,13.7229237191984
2098,0.0
2,1, 1,21, 0, 3,11.25,15.00,WinterDesignDay
2097,13.5751813399843
2098,0.0
2,1, 1,21, 0, 3, 0.00,15.00,WinterDesignDay
8,8.64932348607993
831,14.6784081625447
1912,30.
2,1, 1,21, 0, 3,15.00,20.00,WinterDesignDay
2097,35.7938236419021
2098,0.241964152852291
2,1, 1,21, 0, 3,20.00,25.00,WinterDesignDay
2097,16.9718976170585
2098,0.241964152852291
2,1, 1,21, 0, 3,25.00,30.00,WinterDesignDay
2097,24.9976736387141
2098,0.241964152852291
2,1, 1,21, 0, 3,15.00,30.00,WinterDesignDay
8,8.64932348607993
831,15.5856166513657
1912,30.
2,1, 1,21, 0, 3,30.00,45.00,WinterDesignDay
2097,22.4193039803915
2098,0.241964152852291
8,8.64932348607993
831,15.6000005007587
1912,30.
2,1, 1,21, 0, 3,45.00,48.75,WinterDesignDay
2097,14.0232751055003
2098,0.0
2,1, 1,21, 0, 3,48.75,52.50,WinterDesignDay
2097,13.8810419279235
2098,0.0
2,1, 1,21, 0, 3,52.50,56.25,WinterDesignDay
2097,13.7207866421184
2098,0.0
2,1, 1,21, 0, 3,56.25,60.00,WinterDesignDay
2097,13.5729752366785
2098,0.0
2,1, 1,21, 0, 3,45.00,60.00,WinterDesignDay
8,8.64932348607993
831,14.676086445741
1912,30.
2,1, 1,21, 0, 4, 0.00, 5.00,WinterDesignDay
2097,35.8312555987912
2098,0.241964152852291
2,1, 1,21, 0, 4, 5.00,10.00,WinterDesignDay
2097,16.9621164534245
2098,0.241964152852291
2,1, 1,21, 0, 4,10.00,15.00,WinterDesignDay
2097,25.007602403478
2098,0.241964152852291
2,1, 1,21, 0, 4, 0.00,15.00,WinterDesignDay
8,8.64932348607993
831,15.5855749013024
1912,30.
2,1, 1,21, 0, 4,15.00,30.00,WinterDesignDay
2097,22.4409425145429
2098,0.241964152852291
8,8.64932348607993
831,15.5999992724064
1912,30.
2,1, 1,21, 0, 4,30.00,33.75,WinterDesignDay
2097,14.0214866288501
2098,0.0
2,1, 1,21, 0, 4,33.75,37.50,WinterDesignDay
2097,13.879150033738
2098,0.0
2,1, 1,21, 0, 4,37.50,41.25,WinterDesignDay
2097,13.7188183577541
2098,0.0
2,1, 1,21, 0, 4,41.25,45.00,WinterDesignDay
2097,13.5709427016379
2098,0.0
2,1, 1,21, 0, 4,30.00,45.00,WinterDesignDay
8,8.64932348607993
831,14.6739379492505
1912,30.
2,1, 1,21, 0, 4,45.00,50.00,WinterDesignDay
2097,35.8656990217932
2098,0.241964152852291
2,1, 1,21, 0, 4,50.00,55.00,WinterDesignDay
2097,16.9528750396967
2098,0.241964152852291
2,1, 1,21, 0, 4,55.00,60.00,WinterDesignDay
2097,25.0165962056299
2098,0.241964152852291
2,1, 1,21, 0, 4,45.00,60.00,WinterDesignDay
8,8.64932348607993
831,15.5855363141625
1912,30.
2,1, 1,21, 0, 5, 0.00,15.00,WinterDesignDay
2097,22.4610047639912
2098,0.241964152852291
8,8.64932348607993
831,15.5999982997623
1912,30.
2,1, 1,21, 0, 5,15.00,18.75,WinterDesignDay
2097,14.0198315438884
2098,0.0
2,1, 1,21, 0, 5,18.75,22.50,WinterDesignDay
2097,13.8773992583155
2098,0.0
2,1, 1,21, 0, 5,22.50,26.25,WinterDesignDay
2097,13.7169961931081
2098,0.0
2,1, 1,21, 0, 5,26.25,30.00,WinterDesignDay
2097,13.5690606314737
2098,0.0
2,1, 1,21, 0, 5,15.00,30.00,WinterDesignDay
8,8.64932348607993
831,14.6719470269825
1912,30.
2,1, 1,21, 0, 5,30.00,35.00,WinterDesignDay
2097,35.8974626347189
2098,0.241964152852291
2,1, 1,21, 0, 5,35.00,40.00,WinterDesignDay
2097,16.9441630038161
2098,0.241964152852291
2,1, 1,21, 0, 5,40.00,45.00,WinterDesignDay
2097,25.0247779416377
2098,0.241964152852291
2,1, 1,21, 0, 5,30.00,45.00,WinterDesignDay
8,8.64932348607993
831,15.5855005852076
1912,30.
2,1, 1,21, 0, 5,45.00,60.00,WinterDesignDay
2097,22.4796252941878
2098,0.241964152852291
8,8.64932348607993
831,15.5999975199615
1912,30.
2,1, 1,21, 0, 6, 0.00, 3.75,WinterDesignDay
2097,14.0182944043202
2098,0.0
2,1, 1,21, 0, 6, 3.75, 7.50,WinterDesignDay
2097,13.8757732383403
2098,0.0
2,1, 1,21, 0, 6, 7.50,11.25,WinterDesignDay
2097,13.7153034128749
2098,0.0
2,1, 1,21, 0, 6,11.25,15.00,WinterDesignDay
2097,13.5673119198154
2098,0.0
2,1, 1,21, 0, 6, 0.00,15.00,WinterDesignDay
8,8.64932348607993
831,14.6701000365762
1912,30.
2,1, 1,21, 0, 6,15.00,20.00,WinterDesignDay
2097,35.9268061839212
2098,0.241964152852291
2,1, 1,21, 0, 6,20.00,25.00,WinterDesignDay
2097,16.9359618820004
2098,0.241964152852291
2,1, 1,21, 0, 6,25.00,30.00,WinterDesignDay
2097,25.032245366538
2098,0.241964152852291
2,1, 1,21, 0, 6,15.00,30.00,WinterDesignDay
8,8.64932348607993
831,15.5854674533317
1912,30.
2,1, 1,21, 0, 6,30.00,45.00,WinterDesignDay
2097,22.4969240442929
2098,0.241964152852291
8,8.64932348607993
831,15.5999968876561
1912,30.
2,1, 1,21, 0, 6,45.00,48.75,WinterDesignDay
2097,14.0168632092037
2098,0.0
2,1, 1,21, 0, 6,48.75,52.50,WinterDesignDay
2097,13.8742592669663
2098,0.0
2,1, 1,21, 0, 6,52.50,56.25,WinterDesignDay
2097,13.713726962384
2098,0.0
2,1, 1,21, 0, 6,56.25,60.00,WinterDesignDay
2097,13.5656831856838
2098,0.0
2,1, 1,21, 0, 6,45.00,60.00,WinterDesignDay
8,8.64932348607993
831,14.668384858826
1912,30.
2,1, 1,21, 0, 7, 0.00, 5.00,WinterDesignDay
2097,35.1802095178635
2098,0.241964152852291
2,1, 1,21, 0, 7, 5.00,10.00,WinterDesignDay
2097,16.1602317618048
2098,0.241964152852291
2,1, 1,21, 0, 7,10.00,15.00,WinterDesignDay
2097,24.2628831279817
2098,0.241964152852291
2,1, 1,21, 0, 7, 0.00,15.00,WinterDesignDay
8,8.64932348607993
831,15.5853601566042
1912,16.
2,1, 1,21, 0, 7,15.00,22.50,WinterDesignDay
2097,27.0707958845898
2098,0.241964152852291
2,1, 1,21, 0, 7,22.50,30.00,WinterDesignDay
2097,23.4634936545384
2098,0.241964152852291
2,1, 1,21, 0, 7,15.00,30.00,WinterDesignDay
8,8.64932348607993
831,15.5996020649439
1912,16.
2,1, 1,21, 0, 7,30.00,45.00,WinterDesignDay
2097,26.2267871043776
2098,0.241964152852291
8,8.64932348607993
831,15.6000194377997
1912,16.
2,1, 1,21, 0, 7,45.00,60.00,WinterDesignDay
2097,25.1080699018093
2098,0.241964152852291
8,8.64932348607993
831,15.6000323728978
1912,16.
2,1, 1,21, 0, 8, 0.00,15.00,WinterDesignDay
2097,24.9422124795634
2098,0.241964152852291
8,8.64932348607993
831,15.6000455821166
1912,16.
2,1, 1,21, 0, 8,15.00,30.00,WinterDesignDay
2097,24.8042740251013
2098,0.241964152852291
8,8.64932348607993
831,15.6000541136354
1912,16.
2,1, 1,21, 0, 8,30.00,45.00,WinterDesignDay
2097,24.713095782937
2098,0.241964152852291
8,8.64932348607993
831,15.600066362108
1912,16.
2,1, 1,21, 0, 8,45.00,60.00,WinterDesignDay
2097,24.6419830780257
2098,0.241964152852291
8,8.64932348607993
831,15.600079516678
1912,16.
2,1, 1,21, 0, 9, 0.00,15.00,WinterDesignDay
2097,24.5837323443239
2098,0.241964152852291
8,8.64932348607993
831,15.6000901400067
1912,16.
2,1, 1,21, 0, 9,15.00,30.00,WinterDesignDay
2097,24.5155260164232
2098,0.241964152852291
8,8.64932348607993
831,15.600097374989
1912,16.
2,1, 1,21, 0, 9,30.00,45.00,WinterDesignDay
2097,24.4756235964231
2098,0.241964152852291
8,8.64932348607993
831,15.6001094691459
1912,16.
2,1, 1,21, 0, 9,45.00,60.00,WinterDesignDay
2097,24.4405041827158
2098,0.241964152852291
8,8.64932348607993
831,15.6001228753333
1912,16.
2,1, 1,21, 0,10, 0.00,15.00,WinterDesignDay
2097,24.4095440009581
2098,0.241964152852291
8,8.64932348607993
831,15.6001337650307
1912,16.
2,1, 1,21, 0,10,15.00,30.00,WinterDesignDay
2097,24.349640115111
2098,0.241964152852291
8,8.64932348607993
831,15.6001409719314
1912,16.
2,1, 1,21, 0,10,30.00,45.00,WinterDesignDay
2097,24.3248303752922
2098,0.241964152852291
8,8.64932348607993
831,15.6001565785677
1912,16.
2,1, 1,21, 0,10,45.00,60.00,WinterDesignDay
2097,24.3021589504921
2098,0.241964152852291
8,8.64932348607993
831,15.6001747572917
1912,16.
2,1, 1,21, 0,11, 0.00,15.00,WinterDesignDay
2097,24.2813061699688
2098,0.241964152852291
8,8.64932348607993
831,15.6001895344534
1912,16.
2,1, 1,21, 0,11,15.00,30.00,WinterDesignDay
2097,24.2727491470558
2098,0.241964152852291
8,8.64932348607993
831,15.600199786286
1912,16.
2,1, 1,21, 0,11,30.00,45.00,WinterDesignDay
2097,24.2546891359037
2098,0.241964152852291
8,8.64932348607993
831,15.6002032178678
1912,16.
2,1, 1,21, 0,11,45.00,60.00,WinterDesignDay
2097,24.2377528726018
2098,0.241964152852291
8,8.64932348607993
831,15.6002038580501
1912,16.
2,1, 1,21, 0,12, 0.00,15.00,WinterDesignDay
2097,24.2217625798716
2098,0.241964152852291
8,8.64932348607993
831,15.6002047324588
1912,16.
2,1, 1,21, 0,12,15.00,30.00,WinterDesignDay
2097,24.1850425226257
2098,0.241964152852291
8,8.64932348607993
831,15.6002061325293
1912,16.
2,1, 1,21, 0,12,30.00,45.00,WinterDesignDay
2097,24.1706157420428
2098,0.241964152852291
8,8.64932348607993
831,15.6002150525191
1912,16.
2,1, 1,21, 0,12,45.00,60.00,WinterDesignDay
2097,24.1567715470982
2098,0.241964152852291
8,8.64932348607993
831,15.6002262500087
1912,16.
2,1, 1,21, 0,13, 0.00,15.00,WinterDesignDay
2097,24.1434977960973
2098,0.241964152852291
8,8.64932348607993
831,15.6002352131267
1912,16.
2,1, 1,21, 0,13,15.00,30.00,WinterDesignDay
2097,24.1469112615915
2098,0.241964152852291
8,8.64932348607993
831,15.6002413841293
1912,16.
2,1, 1,21, 0,13,30.00,45.00,WinterDesignDay
2097,24.1346306117493
2098,0.241964152852291
8,8.64932348607993
831,15.6002401387935
1912,16.
2,1, 1,21, 0,13,45.00,60.00,WinterDesignDay
2097,24.1228444378496
2098,0.241964152852291
8,8.64932348607993
831,15.6002361914928
1912,16.
2,1, 1,21, 0,14, 0.00,15.00,WinterDesignDay
2097,24.1124204950189
2098,0.241964152852291
8,8.64932348607993
831,15.6002333406244
1912,16.
2,1, 1,21, 0,14,15.00,30.00,WinterDesignDay
2097,24.1075688933986
2098,0.241964152852291
8,8.64932348607993
831,15.6002324352804
1912,16.
2,1, 1,21, 0,14,30.00,45.00,WinterDesignDay
2097,24.098489805087
2098,0.241964152852291
8,8.64932348607993
831,15.6002308019807
1912,16.
2,1, 1,21, 0,14,45.00,60.00,WinterDesignDay
2097,24.0888271114764
2098,0.241964152852291
8,8.64932348607993
831,15.6002287332801
1912,16.
2,1, 1,21, 0,15, 0.00,15.00,WinterDesignDay
2097,24.0802468556663
2098,0.241964152852291
8,8.64932348607993
831,15.6002270163898
1912,16.
2,1, 1,21, 0,15,15.00,30.00,WinterDesignDay
2097,24.0901051762309
2098,0.241964152852291
8,8.64932348607993
831,15.600226222123
1912,16.
2,1, 1,21, 0,15,30.00,45.00,WinterDesignDay
2097,24.0803773527933
2098,0.241964152852291
8,8.64932348607993
831,15.6002187442378
1912,16.
2,1, 1,21, 0,15,45.00,60.00,WinterDesignDay
2097,24.0720299726469
2098,0.241964152852291
8,8.64932348607993
831,15.6002090432209
1912,16.
2,1, 1,21, 0,16, 0.00,15.00,WinterDesignDay
2097,24.0639589113272
2098,0.241964152852291
8,8.64932348607993
831,15.6002012886042
1912,16.
2,1, 1,21, 0,16,15.00,30.00,WinterDesignDay
2097,24.0665484483417
2098,0.241964152852291
8,8.64932348607993
831,15.600196552249
1912,16.
2,1, 1,21, 0,16,30.00,45.00,WinterDesignDay
2097,24.058725323119
2098,0.241964152852291
8,8.64932348607993
831,15.6001901334377
1912,16.
2,1, 1,21, 0,16,45.00,60.00,WinterDesignDay
2097,24.05108584847
2098,0.241964152852291
8,8.64932348607993
831,15.6001832639634
1912,16.
2,1, 1,21, 0,17, 0.00,15.00,WinterDesignDay
2097,24.0436283383803
2098,0.241964152852291
8,8.64932348607993
831,15.6001775785457
1912,16.
2,1, 1,21, 0,17,15.00,30.00,WinterDesignDay
2097,24.0311981409362
2098,0.241964152852291
8,8.64932348607993
831,15.6001734074326
1912,16.
2,1, 1,21, 0,17,30.00,45.00,WinterDesignDay
2097,24.0233371984167
2098,0.241964152852291
8,8.64932348607993
831,15.6001721532377
1912,16.
2,1, 1,21, 0,17,45.00,60.00,WinterDesignDay
2097,24.0151028147161
2098,0.241964152852291
8,8.64932348607993
831,15.6001721452566
1912,16.
2,1, 1,21, 0,18, 0.00,15.00,WinterDesignDay
2097,24.0078349789757
2098,0.241964152852291
8,8.64932348607993
831,15.6001720314699
1912,16.
2,1, 1,21, 0,18,15.00,30.00,WinterDesignDay
2097,24.0384348772915
2098,0.241964152852291
8,8.64932348607993
831,15.6001720031712
1912,16.
2,1, 1,21, 0,18,30.00,45.00,WinterDesignDay
2097,24.0318921324347
2098,0.241964152852291
8,8.64932348607993
831,15.6001593913526
1912,16.
2,1, 1,21, 0,18,45.00,60.00,WinterDesignDay
2097,24.0255486047373
2098,0.241964152852291
8,8.64932348607993
831,15.6001425023083
1912,16.
2,1, 1,21, 0,19, 0.00, 5.00,WinterDesignDay
2097,14.2758191227555
2098,0.0
2,1, 1,21, 0,19, 5.00,10.00,WinterDesignDay
2097,14.1234784010233
2098,0.0
2,1, 1,21, 0,19,10.00,15.00,WinterDesignDay
2097,40.5687605525619
2098,0.241964152852291
2,1, 1,21, 0,19, 0.00,15.00,WinterDesignDay
8,8.64932348607993
831,15.1345769113388
1912,16.
2,1, 1,21, 0,19,15.00,22.50,WinterDesignDay
2097,28.6636481831008
2098,0.241964152852291
2,1, 1,21, 0,19,22.50,30.00,WinterDesignDay
2097,22.9684621084057
2098,0.241964152852291
2,1, 1,21, 0,19,15.00,30.00,WinterDesignDay
8,8.64932348607993
831,15.5867806823168
1912,16.
2,1, 1,21, 0,19,30.00,35.00,WinterDesignDay
2097,14.0838189153055
2098,0.0
2,1, 1,21, 0,19,35.00,40.00,WinterDesignDay
2097,13.9361160496321
2098,0.0
2,1, 1,21, 0,19,40.00,45.00,WinterDesignDay
2097,13.7681544009221
2098,0.0
2,1, 1,21, 0,19,30.00,45.00,WinterDesignDay
8,8.64932348607993
831,14.7298963954586
1912,16.
2,1, 1,21, 0,19,45.00,50.00,WinterDesignDay
2097,40.0469525781736
2098,0.241964152852291
2,1, 1,21, 0,19,50.00,55.00,WinterDesignDay
2097,16.6449139766502
2098,0.241964152852291
2,1, 1,21, 0,19,55.00,60.00,WinterDesignDay
2097,23.10724404918
2098,0.241964152852291
2,1, 1,21, 0,19,45.00,60.00,WinterDesignDay
8,8.64932348607993
831,15.49552572383
1912,16.
2,1, 1,21, 0,20, 0.00,15.00,WinterDesignDay
2097,22.648470713755
2098,0.241964152852291
8,8.64932348607993
831,15.6000607322702
1912,16.
2,1, 1,21, 0,20,15.00,18.75,WinterDesignDay
2097,14.0135786156507
2098,0.0
2,1, 1,21, 0,20,18.75,22.50,WinterDesignDay
2097,13.8848976719815
2098,0.0
2,1, 1,21, 0,20,22.50,26.25,WinterDesignDay
2097,13.7442288478881
2098,0.0
2,1, 1,21, 0,20,26.25,30.00,WinterDesignDay
2097,13.6114503980751
2098,0.0
2,1, 1,21, 0,20,15.00,30.00,WinterDesignDay
8,8.64932348607993
831,14.7205435818028
1912,16.
2,1, 1,21, 0,20,30.00,35.00,WinterDesignDay
2097,34.9931756543127
2098,0.241964152852291
2,1, 1,21, 0,20,35.00,40.00,WinterDesignDay
2097,17.0297735646309
2098,0.241964152852291
2,1, 1,21, 0,20,40.00,45.00,WinterDesignDay
2097,24.6951137102143
2098,0.241964152852291
2,1, 1,21, 0,20,30.00,45.00,WinterDesignDay
8,8.64932348607993
831,15.586368748001
1912,16.
2,1, 1,21, 0,20,45.00,60.00,WinterDesignDay
2097,22.0539315961197
2098,0.241964152852291
8,8.64932348607993
831,15.6000656385177
1912,16.
2,1, 1,21, 0,21, 0.00, 3.75,WinterDesignDay
2097,14.0609488178899
2098,0.0
2,1, 1,21, 0,21, 3.75, 7.50,WinterDesignDay
2097,13.9203227184266
2098,0.0
2,1, 1,21, 0,21, 7.50,11.25,WinterDesignDay
2097,13.7621936485674
2098,0.0
2,1, 1,21, 0,21,11.25,15.00,WinterDesignDay
2097,13.6160009720366
2098,0.0
2,1, 1,21, 0,21, 0.00,15.00,WinterDesignDay
8,8.64932348607993
831,14.7112203455388
1912,16.
2,1, 1,21, 0,21,15.00,20.00,WinterDesignDay
2097,35.2248000476363
2098,0.241964152852291
2,1, 1,21, 0,21,20.00,25.00,WinterDesignDay
2097,17.0709520996951
2098,0.241964152852291
2,1, 1,21, 0,21,25.00,30.00,WinterDesignDay
2097,24.8171125699611
2098,0.241964152852291
2,1, 1,21, 0,21,15.00,30.00,WinterDesignDay
8,8.64932348607993
831,15.5862098433171
1912,16.
2,1, 1,21, 0,21,30.00,45.00,WinterDesignDay
2097,22.1443956908194
2098,0.241964152852291
8,8.64932348607993
831,15.6000442319124
1912,16.
2,1, 1,21, 0,21,45.00,48.75,WinterDesignDay
2097,14.0530808109626
2098,0.0
2,1, 1,21, 0,21,48.75,52.50,WinterDesignDay
2097,13.9123928399596
2098,0.0
2,1, 1,21, 0,21,52.50,56.25,WinterDesignDay
2097,13.7528758477784
2098,0.0
2,1, 1,21, 0,21,56.25,60.00,WinterDesignDay
2097,13.6057362617098
2098,0.0
2,1, 1,21, 0,21,45.00,60.00,WinterDesignDay
8,8.64932348607993
831,14.7034281097763
1912,16.
2,1, 1,21, 0,22, 0.00, 5.00,WinterDesignDay
2097,35.3658939110709
2098,0.241964152852291
2,1, 1,21, 0,22, 5.00,10.00,WinterDesignDay
2097,17.0532983669439
2098,0.241964152852291
2,1, 1,21, 0,22,10.00,15.00,WinterDesignDay
2097,24.8660811240988
2098,0.241964152852291
2,1, 1,21, 0,22, 0.00,15.00,WinterDesignDay
8,8.64932348607993
831,15.5860695287132
1912,16.
2,1, 1,21, 0,22,15.00,30.00,WinterDesignDay
2097,22.199342896588
2098,0.241964152852291
8,8.64932348607993
831,15.6000307930347
1912,16.
2,1, 1,21, 0,22,30.00,33.75,WinterDesignDay
2097,14.0453812121206
2098,0.0
2,1, 1,21, 0,22,33.75,37.50,WinterDesignDay
2097,13.9043129671633
2098,0.0
2,1, 1,21, 0,22,37.50,41.25,WinterDesignDay
2097,13.7445752786486
2098,0.0
2,1, 1,21, 0,22,41.25,45.00,WinterDesignDay
2097,13.5972374952341
2098,0.0
2,1, 1,21, 0,22,30.00,45.00,WinterDesignDay
8,8.64932348607993
831,14.6978491059963
1912,16.
2,1, 1,21, 0,22,45.00,50.00,WinterDesignDay
2097,35.4678059019556
2098,0.241964152852291
2,1, 1,21, 0,22,50.00,55.00,WinterDesignDay
2097,17.0414710782322
2098,0.241964152852291
2,1, 1,21, 0,22,55.00,60.00,WinterDesignDay
2097,24.9019982414313
2098,0.241964152852291
2,1, 1,21, 0,22,45.00,60.00,WinterDesignDay
8,8.64932348607993
831,15.5859697572996
1912,16.
2,1, 1,21, 0,23, 0.00,15.00,WinterDesignDay
2097,22.2433112776601
2098,0.241964152852291
8,8.64932348607993
831,15.6000216802181
1912,30.
2,1, 1,21, 0,23,15.00,18.75,WinterDesignDay
2097,14.0396667558919
2098,0.0
2,1, 1,21, 0,23,18.75,22.50,WinterDesignDay
2097,13.8982722425169
2098,0.0
2,1, 1,21, 0,23,22.50,26.25,WinterDesignDay
2097,13.738412545113
2098,0.0
2,1, 1,21, 0,23,26.25,30.00,WinterDesignDay
2097,13.5909514433542
2098,0.0
2,1, 1,21, 0,23,15.00,30.00,WinterDesignDay
8,8.64932348607993
831,14.6934166852625
1912,30.
2,1, 1,21, 0,23,30.00,35.00,WinterDesignDay
2097,35.5472382983877
2098,0.241964152852291
2,1, 1,21, 0,23,35.00,40.00,WinterDesignDay
2097,17.0305722311526
2098,0.241964152852291
2,1, 1,21, 0,23,40.00,45.00,WinterDesignDay
2097,24.9289660546517
2098,0.241964152852291
2,1, 1,21, 0,23,30.00,45.00,WinterDesignDay
8,8.64932348607993
831,15.5858902171249
1912,30.
2,1, 1,21, 0,23,45.00,60.00,WinterDesignDay
2097,22.2808969922266
2098,0.241964152852291
8,8.64932348607993
831,15.6000151481037
1912,30.
2,1, 1,21, 0,24, 0.00, 3.75,WinterDesignDay
2097,14.0353527313984
2098,0.0
2,1, 1,21, 0,24, 3.75, 7.50,WinterDesignDay
2097,13.8938337694273
2098,0.0
2,1, 1,21, 0,24, 7.50,11.25,WinterDesignDay
2097,13.7340433060818
2098,0.0
2,1, 1,21, 0,24,11.25,15.00,WinterDesignDay
2097,13.5866357447559
2098,0.0
2,1, 1,21, 0,24, 0.00,15.00,WinterDesignDay
8,8.64932348607993
831,14.6898378000629
1912,30.
2,1, 1,21, 0,24,15.00,20.00,WinterDesignDay
2097,35.6054292767733
2098,0.241964152852291
2,1, 1,21, 0,24,20.00,25.00,WinterDesignDay
2097,17.0160177656383
2098,0.241964152852291
2,1, 1,21, 0,24,25.00,30.00,WinterDesignDay
2097,24.9447050309967
2098,0.241964152852291
2,1, 1,21, 0,24,15.00,30.00,WinterDesignDay
8,8.64932348607993
831,15.5858235751083
1912,30.
2,1, 1,21, 0,24,30.00,45.00,WinterDesignDay
2097,22.3139474755738
2098,0.241964152852291
8,8.64932348607993
831,15.6000103535659
1912,30.
2,1, 1,21, 0,24,45.00,48.75,WinterDesignDay
2097,14.0322999619412
2098,0.0
2,1, 1,21, 0,24,48.75,52.50,WinterDesignDay
2097,13.8905905337665
2098,0.0
2,1, 1,21, 0,24,52.50,56.25,WinterDesignDay
2097,13.7306978630107
2098,0.0
2,1, 1,21, 0,24,56.25,60.00,WinterDesignDay
2097,13.58319619211
2098,0.0
2,1, 1,21, 0,24,45.00,60.00,WinterDesignDay
8,8.64932348607993
831,14.6865674024093
1912,30.
1,MIAMI INTL AP ANN CLG .4% CONDNS DB=>MWB,  25.82, -80.30,  -5.00,  11.00
2,1, 7,21, 0, 1, 0.00, 1.50,SummerDesignDay
2097,12.8033624604562
2098,0.241964152852291
2,1, 7,21, 0, 1, 1.50, 3.00,SummerDesignDay
2097,12.8002910095369
2098,0.241964152852291
2,1, 7,21, 0, 1, 3.00, 4.50,SummerDesignDay
2097,12.800289900724
2098,0.241964152852291
2,1, 7,21, 0, 1, 4.50, 6.00,SummerDesignDay
2097,12.8002922389256
2098,0.241964152852291
2,1, 7,21, 0, 1, 6.00, 7.50,SummerDesignDay
2097,12.8002932727972
2098,0.241964152852291
2,1, 7,21, 0, 1, 7.50, 9.00,SummerDesignDay
2097,12.8002925353652
2098,0.241964152852291
2,1, 7,21, 0, 1, 9.00,10.50,SummerDesignDay
2097,12.8002947861417
2098,0.241964152852291
2,1, 7,21, 0, 1,10.50,12.00,SummerDesignDay
2097,12.8002971203742
2098,0.241964152852291
2,1, 7,21, 0, 1,12.00,13.50,SummerDesignDay
2097,12.8002977861712
2098,0.241964152852291
2,1, 7,21, 0, 1,13.50,15.00,SummerDesignDay
2097,12.8002983659537
2098,0.241964152852291
2,1, 7,21, 0, 1, 0.00,15.00,SummerDesignDay
8,27.5548234860799
831,25.7680457571099
1912,30.
2,1, 7,21, 0, 1,15.00,18.00,SummerDesignDay
2097,12.8002997264693
2098,0.241964152852291
2,1, 7,21, 0, 1,18.00,21.00,SummerDesignDay
2097,12.8002976537597
2098,0.241964152852291
2,1, 7,21, 0, 1,21.00,24.00,SummerDesignDay
2097,12.8002983549666
2098,0.241964152852291
2,1, 7,21, 0, 1,24.00,27.00,SummerDesignDay
2097,12.8002994084213
2098,0.241964152852291
2,1, 7,21, 0, 1,27.00,30.00,SummerDesignDay
2097,12.8003001960588
2098,0.241964152852291
2,1, 7,21, 0, 1,15.00,30.00,SummerDesignDay
8,27.4543234860799
831,25.5364786570317
1912,30.
2,1, 7,21, 0, 1,30.00,31.67,SummerDesignDay
2097,26.076853404323
2098,0.0
2,1, 7,21, 0, 1,31.67,33.33,SummerDesignDay
2097,26.0942301735813
2098,0.0
2,1, 7,21, 0, 1,33.33,35.00,SummerDesignDay
2097,26.1117792377599
2098,0.0
2,1, 7,21, 0, 1,35.00,36.67,SummerDesignDay
2097,26.1313691798042
2098,0.0
2,1, 7,21, 0, 1,36.67,38.33,SummerDesignDay
2097,26.1493632814412
2098,0.0
2,1, 7,21, 0, 1,38.33,40.00,SummerDesignDay
2097,26.1650348391886
2098,0.0
2,1, 7,21, 0, 1,40.00,41.67,SummerDesignDay
2097,26.17870223125
2098,0.0
2,1, 7,21, 0, 1,41.67,43.33,SummerDesignDay
2097,26.1907942149671
2098,0.0
2,1, 7,21, 0, 1,43.33,45.00,SummerDesignDay
2097,26.2016023822871
2098,0.0
2,1, 7,21, 0, 1,30.00,45.00,SummerDesignDay
8,27.3538234860799
831,26.5393904944864
1912,30.
2,1, 7,21, 0, 1,45.00,47.14,SummerDesignDay
2097,12.8005558088582
2098,0.241964152852291
2,1, 7,21, 0, 1,47.14,49.29,SummerDesignDay
2097,12.8003101982183
2098,0.241964152852291
2,1, 7,21, 0, 1,49.29,51.43,SummerDesignDay
2097,12.8003099347626
2098,0.241964152852291
2,1, 7,21, 0, 1,51.43,53.57,SummerDesignDay
2097,12.8003099575492
2098,0.241964152852291
2,1, 7,21, 0, 1,53.57,55.71,SummerDesignDay
2097,12.8003114821973
2098,0.241964152852291
2,1, 7,21, 0, 1,55.71,57.86,SummerDesignDay
2097,12.8003114201073
2098,0.241964152852291
2,1, 7,21, 0, 1,57.86,60.00,SummerDesignDay
2097,12.8003113428342
2098,0.241964152852291
2,1, 7,21, 0, 1,45.00,60.00,SummerDesignDay
8,27.2533234860799
831,25.6783801172574
1912,30.
2,1, 7,21, 0, 2, 0.00, 3.00,SummerDesignDay
2097,12.8003113972012
2098,0.241964152852291
2,1, 7,21, 0, 2, 3.00, 6.00,SummerDesignDay
2097,12.8003107761964
2098,0.241964152852291
2,1, 7,21, 0, 2, 6.00, 9.00,SummerDesignDay
2097,12.8003106303018
2098,0.241964152852291
2,1, 7,21, 0, 2, 9.00,12.00,SummerDesignDay
2097,12.800311920111
2098,0.241964152852291
2,1, 7,21, 0, 2,12.00,15.00,SummerDesignDay
2097,12.8003114854139
2098,0.241964152852291
2,1, 7,21, 0, 2, 0.00,15.00,SummerDesignDay
8,27.1863234860799
831,25.4994598421336
1912,30.
2,1, 7,21, 0, 2,15.00,16.50,SummerDesignDay
2097,26.0490437332387
2098,0.0
2,1, 7,21, 0, 2,16.50,18.00,SummerDesignDay
2097,26.065805391966
2098,0.0
2,1, 7,21, 0, 2,18.00,19.50,SummerDesignDay
2097,26.0826455825998
2098,0.0
2,1, 7,21, 0, 2,19.50,21.00,SummerDesignDay
2097,26.1015985085713
2098,0.0
2,1, 7,21, 0, 2,21.00,22.50,SummerDesignDay
2097,26.1191610323755
2098,0.0
2,1, 7,21, 0, 2,22.50,24.00,SummerDesignDay
2097,26.1346072055327
2098,0.0
2,1, 7,21, 0, 2,24.00,25.50,SummerDesignDay
2097,26.1482128887463
2098,0.0
2,1, 7,21, 0, 2,25.50,27.00,SummerDesignDay
2097,26.1603652930911
2098,0.0
2,1, 7,21, 0, 2,27.00,28.50,SummerDesignDay
2097,26.1713260099095
2098,0.0
2,1, 7,21, 0, 2,28.50,30.00,SummerDesignDay
2097,26.1812480642164
2098,0.0
2,1, 7,21, 0, 2,15.00,30.00,SummerDesignDay
8,27.1193234860799
831,26.5169965985782
1912,30.
2,1, 7,21, 0, 2,30.00,32.14,SummerDesignDay
2097,12.8005678168376
2098,0.241964152852291
2,1, 7,21, 0, 2,32.14,34.29,SummerDesignDay
2097,12.8003213603832
2098,0.241964152852291
2,1, 7,21, 0, 2,34.29,36.43,SummerDesignDay
2097,12.800320398466
2098,0.241964152852291
2,1, 7,21, 0, 2,36.43,38.57,SummerDesignDay
2097,12.8003197527627
2098,0.241964152852291
2,1, 7,21, 0, 2,38.57,40.71,SummerDesignDay
2097,12.8003205443256
2098,0.241964152852291
2,1, 7,21, 0, 2,40.71,42.86,SummerDesignDay
2097,12.8003198265005
2098,0.241964152852291
2,1, 7,21, 0, 2,42.86,45.00,SummerDesignDay
2097,12.8003191759197
2098,0.241964152852291
2,1, 7,21, 0, 2,30.00,45.00,SummerDesignDay
8,27.0523234860799
831,25.6573831031315
1912,30.
2,1, 7,21, 0, 2,45.00,48.00,SummerDesignDay
2097,12.8003194322761
2098,0.241964152852291
2,1, 7,21, 0, 2,48.00,51.00,SummerDesignDay
2097,12.800319474734
2098,0.241964152852291
2,1, 7,21, 0, 2,51.00,54.00,SummerDesignDay
2097,12.8003189170838
2098,0.241964152852291
2,1, 7,21, 0, 2,54.00,57.00,SummerDesignDay
2097,12.8003194602089
2098,0.241964152852291
2,1, 7,21, 0, 2,57.00,60.00,SummerDesignDay
2097,12.8003183555876
2098,0.241964152852291
2,1, 7,21, 0, 2,45.00,60.00,SummerDesignDay
8,26.9853234860799
831,25.4879826569617
1912,30.
2,1, 7,21, 0, 3, 0.00, 1.50,SummerDesignDay
2097,26.0312705207646
2098,0.0
2,1, 7,21, 0, 3, 1.50, 3.00,SummerDesignDay
2097,26.0477997486422
2098,0.0
2,1, 7,21, 0, 3, 3.00, 4.50,SummerDesignDay
2097,26.0645156317591
2098,0.0
2,1, 7,21, 0, 3, 4.50, 6.00,SummerDesignDay
2097,26.0833207773767
2098,0.0
2,1, 7,21, 0, 3, 6.00, 7.50,SummerDesignDay
2097,26.1007607630233
2098,0.0
2,1, 7,21, 0, 3, 7.50, 9.00,SummerDesignDay
2097,26.1161179339139
2098,0.0
2,1, 7,21, 0, 3, 9.00,10.50,SummerDesignDay
2097,26.1296620834893
2098,0.0
2,1, 7,21, 0, 3,10.50,12.00,SummerDesignDay
2097,26.1417731692519
2098,0.0
2,1, 7,21, 0, 3,12.00,13.50,SummerDesignDay
2097,26.1527077971757
2098,0.0
2,1, 7,21, 0, 3,13.50,15.00,SummerDesignDay
2097,26.1626159157092
2098,0.0
2,1, 7,21, 0, 3, 0.00,15.00,SummerDesignDay
8,26.9350734860799
831,26.5079037333485
1912,30.
2,1, 7,21, 0, 3,15.00,17.14,SummerDesignDay
2097,12.8005751856444
2098,0.241964152852291
2,1, 7,21, 0, 3,17.14,19.29,SummerDesignDay
2097,12.8003282616073
2098,0.241964152852291
2,1, 7,21, 0, 3,19.29,21.43,SummerDesignDay
2097,12.8003269113094
2098,0.241964152852291
2,1, 7,21, 0, 3,21.43,23.57,SummerDesignDay
2097,12.8003259097648
2098,0.241964152852291
2,1, 7,21, 0, 3,23.57,25.71,SummerDesignDay
2097,12.8003262993286
2098,0.241964152852291
2,1, 7,21, 0, 3,25.71,27.86,SummerDesignDay
2097,12.8003252262278
2098,0.241964152852291
2,1, 7,21, 0, 3,27.86,30.00,SummerDesignDay
2097,12.8003242650163
2098,0.241964152852291
2,1, 7,21, 0, 3,15.00,30.00,SummerDesignDay
8,26.8848234860799
831,25.645141083811
1912,30.
2,1, 7,21, 0, 3,30.00,33.00,SummerDesignDay
2097,12.8003244202906
2098,0.241964152852291
2,1, 7,21, 0, 3,33.00,36.00,SummerDesignDay
2097,12.8003247862204
2098,0.241964152852291
2,1, 7,21, 0, 3,36.00,39.00,SummerDesignDay
2097,12.8003240030753
2098,0.241964152852291
2,1, 7,21, 0, 3,39.00,42.00,SummerDesignDay
2097,12.8003241374707
2098,0.241964152852291
2,1, 7,21, 0, 3,42.00,45.00,SummerDesignDay
2097,12.8003226690338
2098,0.241964152852291