Program Version,EnergyPlus-Windows-64 8.0.0.008, YMD=2018.11.12 22:51
1,5,Environment Title[],Latitude[deg],Longitude[deg],Time Zone[],Elevation[m]
2,6,Day of Simulation[],Month[],Day of Month[],DST Indicator[1=yes 0=no],Hour[],StartMinute[],EndMinute[],DayType
3,3,Cumulative Day of Simulation[],Month[],Day of Month[],DST Indicator[1=yes 0=no],DayType  ! When Daily Meters Requested
4,2,Cumulative Days of Simulation[],Month[]  ! When Monthly Meters Requested
5,1,Cumulative Days of Simulation[] ! When Run Period Meters Requested
59,1,Electricity:Facility [J] !Hourly
1757,1,ElectricityNet:Facility [J] !Hourly
702,1,Gas:Facility [J] !Hourly
89,1,InteriorLights:Electricity [J] !Hourly
444,1,InteriorEquipment:Electricity [J] !Hourly
End of Data Dictionary
1,MIAMI INTL AP ANN HTG 99.6% CONDNS DB,  25.82, -80.30,  -5.00,  11.00
2,1, 1,21, 0, 1, 0.00,60.00,WinterDesignDay
59,111486783.519441
89,0.0
444,0.0
702,11589549.5399434
1757,111486783.519441
2,1, 1,21, 0, 2, 0.00,60.00,WinterDesignDay
59,105298151.45948
89,0.0
444,0.0
702,10972690.8287153
1757,105298151.45948
2,1, 1,21, 0, 3, 0.00,60.00,WinterDesignDay
59,78927524.2021499
89,0.0
444,0.0
702,9079036.30524965
1757,78927524.2021499
2,1, 1,21, 0, 4, 0.00,60.00,WinterDesignDay
59,111964482.863182
89,0.0
444,0.0
702,11666826.3831204
1757,111964482.863182
2,1, 1,21, 0, 5, 0.00,60.00,WinterDesignDay
59,105715601.98526
89,0.0
444,0.0
702,11040270.5331601
1757,105715601.98526
2,1, 1,21, 0, 6, 0.00,60.00,WinterDesignDay
59,79181017.0028898
89,0.0
444,0.0
702,9121697.66838075
1757,79181017.0028898
2,1, 1,21, 0, 7, 0.00,60.00,WinterDesignDay
59,188157683.943101
89,0.0
444,0.0
702,12006621.1621701
1757,188157683.943101
2,1, 1,21, 0, 8, 0.00,60.00,WinterDesignDay
59,154328917.428364
89,0.0
444,0.0
702,10091910.6893602
1757,154328917.428364
2,1, 1,21, 0, 9, 0.00,60.00,WinterDesignDay
59,152435624.143938
89,0.0
444,0.0
702,10073785.0209912
1757,152435624.143938
2,1, 1,21, 0,10, 0.00,60.00,WinterDesignDay
59,151358254.887193
89,0.0
444,0.0
702,10058452.4919092
1757,151358254.887193
2,1, 1,21, 0,11, 0.00,60.00,WinterDesignDay
59,150911202.302855
89,0.0
444,0.0
702,10043371.72571
1757,150911202.302855
2,1, 1,21, 0,12, 0.00,60.00,WinterDesignDay
59,150430948.56331
89,0.0
444,0.0
702,10029318.9315426
1757,150430948.56331
2,1, 1,21, 0,13, 0.00,60.00,WinterDesignDay
59,150247951.712456
89,0.0
444,0.0
702,10015652.8835841
1757,150247951.712456
2,1, 1,21, 0,14, 0.00,60.00,WinterDesignDay
59,150138162.369377
89,0.0
444,0.0
702,10002698.4744191
1757,150138162.369377
2,1, 1,21, 0,15, 0.00,60.00,WinterDesignDay
59,150152345.544266
89,0.0
444,0.0
702,14081962.2529416
1757,150152345.544266
2,1, 1,21, 0,16, 0.00,60.00,WinterDesignDay
59,150136686.79412
89,0.0
444,0.0
702,9979505.86827572
1757,150136686.79412
2,1, 1,21, 0,17, 0.00,60.00,WinterDesignDay
59,149968505.124275
89,0.0
444,0.0
702,14035237.028975
1757,149968505.124275
2,1, 1,21, 0,18, 0.00,60.00,WinterDesignDay
59,157409717.394084
89,0.0
444,0.0
702,9959315.95276305
1757,157409717.394084
2,1, 1,21, 0,19, 0.00,60.00,WinterDesignDay
59,116019188.957341
89,0.0
444,0.0
702,10211442.7129349
1757,116019188.957341
2,1, 1,21, 0,20, 0.00,60.00,WinterDesignDay
59,117441725.36021
89,0.0
444,0.0
702,10737317.4279137
1757,117441725.36021
2,1, 1,21, 0,21, 0.00,60.00,WinterDesignDay
59,88341687.9978986
89,0.0
444,0.0
702,9079408.51091353
1757,88341687.9978986
2,1, 1,21, 0,22, 0.00,60.00,WinterDesignDay
59,121117950.023672
89,0.0
444,0.0
702,11512959.9390979
1757,121117950.023672
2,1, 1,21, 0,23, 0.00,60.00,WinterDesignDay
59,115049399.001512
89,0.0
444,0.0
702,10888172.7188421
1757,115049399.001512
2,1, 1,21, 0,24, 0.00,60.00,WinterDesignDay
59,88905429.1875703
89,0.0
444,0.0
702,9025085.52022605
1757,88905429.1875703
1,MIAMI INTL AP ANN CLG .4% CONDNS DB=>MWB,  25.82, -80.30,  -5.00,  11.00
2,1, 7,21, 0, 1, 0.00,60.00,SummerDesignDay
59,528423372.456483
89,158309273.450227
444,224813060.552967
702,4597200.
1757,528423372.456483
2,1, 7,21, 0, 2, 0.00,60.00,SummerDesignDay
59,528902173.137558
89,158309273.450227
444,224813060.552967
702,4597200.
1757,528902173.137558
2,1, 7,21, 0, 3, 0.00,60.00,SummerDesignDay
59,508045199.27038
89,158309273.450227
444,224813060.552967
702,4597200.
1757,508045199.27038
2,1, 7,21, 0, 4, 0.00,60.00,SummerDesignDay
59,531106083.553805
89,158309273.450227
444,224813060.552967
702,4597200.
1757,531106083.553805
2,1, 7,21, 0, 5, 0.00,60.00,SummerDesignDay
59,547493422.88206
89,158309273.450227
444,224813060.552967
702,4597200.
1757,547493422.88206
2,1, 7,21, 0, 6, 0.00,60.00,SummerDesignDay
59,518747623.435266
89,157132290.901714
444,224813060.552967
702,4597200.
1757,518747623.435266
2,1, 7,21, 0, 7, 0.00,60.00,SummerDesignDay
59,693026645.625041
89,130547525.051546
444,224813060.552967
702,4597200.
1757,693026645.625041
2,1, 7,21, 0, 8, 0.00,60.00,SummerDesignDay
59,782734815.475383
89,125116957.414271
444,224813060.552967
702,4597200.
1757,782734815.475383
2,1, 7,21, 0, 9, 0.00,60.00,SummerDesignDay
59,761960677.418473
89,124547812.705664
444,224813060.552967
702,4597200.
1757,761960677.418473
2,1, 7,21, 0,10, 0.00,60.00,SummerDesignDay
59,772379561.049955
89,124547812.705664
444,224813060.552967
702,4597200.
1757,772379561.049955
2,1, 7,21, 0,11, 0.00,60.00,SummerDesignDay
59,784724071.347306
89,124547812.705664
444,224813060.552967
702,4597200.
1757,784724071.347306
2,1, 7,21, 0,12, 0.00,60.00,SummerDesignDay
59,787977379.740898
89,124547812.705664
444,224813060.552967
702,17573837.2350754
1757,787977379.740898
2,1, 7,21, 0,13, 0.00,60.00,SummerDesignDay
59,790827484.375704
89,124547812.705664
444,224813060.552967
702,17603883.8234206
1757,790827484.375704
2,1, 7,21, 0,14, 0.00,60.00,SummerDesignDay
59,808005322.622344
89,124547812.705664
444,224813060.552967
702,13766133.5921973
1757,808005322.622344
2,1, 7,21, 0,15, 0.00,60.00,SummerDesignDay
59,841651444.333148
89,124547812.705664
444,224813060.552967
702,13165883.1492856
1757,841651444.333148
2,1, 7,21, 0,16, 0.00,60.00,SummerDesignDay
59,854094607.078214
89,124547812.705664
444,224813060.552967
702,12999045.224296
1757,854094607.078214
2,1, 7,21, 0,17, 0.00,60.00,SummerDesignDay
59,831082878.545158
89,124547812.705664
444,224813060.552967
702,13205805.7430795
1757,831082878.545158
2,1, 7,21, 0,18, 0.00,60.00,SummerDesignDay
59,788381050.686825
89,125492201.447479
444,224813060.552967
702,8735768.90379224
1757,788381050.686825
2,1, 7,21, 0,19, 0.00,60.00,SummerDesignDay
59,748142461.829361
89,140309001.304991
444,224813060.552967
702,8690733.61917438
1757,748142461.829361
2,1, 7,21, 0,20, 0.00,60.00,SummerDesignDay
59,755594065.114885
89,158309273.450227
444,224813060.552967
702,4597200.
1757,755594065.114885
2,1, 7,21, 0,21, 0.00,60.00,SummerDesignDay
59,737148872.330239
89,158309273.450227
444,224813060.552967
702,4597200.
1757,737148872.330239
2,1, 7,21, 0,22, 0.00,60.00,SummerDesignDay
59,723360416.782659
89,158309273.450227
444,224813060.552967
702,4597200.
1757,723360416.782659
2,1, 7,21, 0,23, 0.00,60.00,SummerDesignDay
59,530058329.41638
89,158309273.450227
444,224813060.552967
702,4597200.
1757,530058329.41638
2,1, 7,21, 0,24, 0.00,60.00,SummerDesignDay
59,505621220.661132
89,158309273.450227
444,224813060.552967
702,4597200.
1757,505621220.661132
1,Miami Intl Ap FL USA TMY3 WMO#=722020,  25.82, -80.30,  -5.00,  11.00
2,1, 6,20, 1, 1, 0.00,60.00,Sunday         
59,61035577.042117
89,7915463.67251137
444,33399901.5013581
702,4597200.
1757,61035577.0421169
2,1, 6,20, 1, 2, 0.00,60.00,Sunday         
59,61036294.1179892
89,7915463.67251137
444,33399901.5013581
702,4597200.
1757,61036294.1179892
2,1, 6,20, 1, 3, 0.00,60.00,Sunday         
59,61036294.1179892
89,7915463.67251137
444,33399901.5013581
702,4597200.
1757,61036294.1179892
2,1, 6,20, 1, 4, 0.00,60.00,Sunday         
59,61036294.1179892
89,7915463.67251137
444,33399901.5013581
702,4597200.
1757,61036294.1179892
2,1, 6,20, 1, 5, 0.00,60.00,Sunday         
59,61036294.1179892
89,7915463.67251137
444,33399901.5013581
702,4597200.
1757,61036294.1179892
2,1, 6,20, 1, 6, 0.00,60.00,Sunday         
59,63699067.1265476
89,6713244.11138264
444,41385398.9087341
702,4597200.
1757,63699067.1265476
2,1, 6,20, 1, 7, 0.00,60.00,Sunday         
59,132634478.943788
89,5777719.36105109
444,41385398.9087341
702,4597200.
1757,132634478.943788
2,1, 6,20, 1, 8, 0.00,60.00,Sunday         
59,175014618.559161
89,5453896.20546521
444,41385398.9087341
702,4597200.
1757,175014618.559161
2,1, 6,20, 1, 9, 0.00,60.00,Sunday         
59,174971034.726587
89,5370038.36600498
444,41385398.9087341
702,4597200.
1757,174971034.726587
2,1, 6,20, 1,10, 0.00,60.00,Sunday         
59,144463242.080462
89,5370038.36600498
444,41385398.9087341
702,4597200.
1757,144463242.080462
2,1, 6,20, 1,11, 0.00,60.00,Sunday         
59,195050455.97115
89,5370038.36600498
444,41385398.9087341
702,4597200.
1757,195050455.97115
2,1, 6,20, 1,12, 0.00,60.00,Sunday         
59,236370127.731759
89,5370038.36600498
444,41385398.9087341
702,4597200.
1757,236370127.731759
2,1, 6,20, 1,13, 0.00,60.00,Sunday         
59,158888661.965608
89,5370038.36600498
444,41385398.9087341
702,4597200.
1757,158888661.965608
2,1, 6,20, 1,14, 0.00,60.00,Sunday         
59,196014107.519482
89,5370038.36600498
444,41385398.9087341
702,4597200.
1757,196014107.519482
2,1, 6,20, 1,15, 0.00,60.00,Sunday         
59,160931226.998109
89,5370038.36600498
444,41385398.9087341
702,4597200.
1757,160931226.998109
2,1, 6,20, 1,16, 0.00,60.00,Sunday         
59,166266496.140923
89,5370038.36600498
444,41385398.9087341
702,4597200.
1757,166266496.140923
2,1, 6,20, 1,17, 0.00,60.00,Sunday         
59,140322875.607659
89,5405031.473076
444,41385398.9087341
702,4597200.
1757,140322875.607659
2,1, 6,20, 1,18, 0.00,60.00,Sunday         
59,178020319.901572
89,6523459.41668429
444,33399901.5013581
702,4597200.
1757,178020319.901572
2,1, 6,20, 1,19, 0.00,60.00,Sunday         
59,79653877.0891378
89,7587251.21305527
444,33399901.5013581
702,4597200.
1757,79653877.0891378
2,1, 6,20, 1,20, 0.00,60.00,Sunday         
59,189537158.548152
89,7915463.67251137
444,33399901.5013581
702,4597200.
1757,189537158.548152
2,1, 6,20, 1,21, 0.00,60.00,Sunday         
59,178977551.409838
89,7915463.67251137
444,33399901.5013581
702,4597200.
1757,178977551.409838
2,1, 6,20, 1,22, 0.00,60.00,Sunday         
59,144216463.63039
89,7915463.67251137
444,33399901.5013581
702,4597200.
1757,144216463.63039
2,1, 6,20, 1,23, 0.00,60.00,Sunday         
59,146597719.62783
89,7915463.67251137
444,33399901.5013581
702,4597200.
1757,146597719.62783
2,1, 6,20, 1,24, 0.00,60.00,Sunday         
59,61036294.1179892
89,7915463.67251137
444,33399901.5013581
702,4597200.
1757,61036294.1179892
2,2, 6,21, 1, 1, 0.00,60.00,Monday         
59,72340000.9157607
89,7915463.67251137
444,44533202.0018108
702,4597200.
1757,72340000.9157607
2,2, 6,21, 1, 2, 0.00,60.00,Monday         
59,72340000.9157607
89,7915463.67251137
444,44533202.0018108
702,4597200.
1757,72340000.9157607
2,2, 6,21, 1, 3, 0.00,60.00,Monday         
59,72340000.9157607
89,7915463.67251137
444,44533202.0018108
702,4597200.
1757,72340000.9157607
2,2, 6,21, 1, 4, 0.00,60.00,Monday         
59,72340000.9157607
89,7915463.67251137
444,44533202.0018108
702,4597200.
1757,72340000.9157607
2,2, 6,21, 1, 5, 0.00,60.00,Monday         
59,80258429.8383602
89,15830927.3450227
444,44533202.0018108
702,4597200.
1757,80258429.8383602
2,2, 6,21, 1, 6, 0.00,60.00,Monday         
59,273038035.525214
89,13460971.0402478
444,55180531.8783121
702,4597200.
1757,273038035.525214
2,2, 6,21, 1, 7, 0.00,60.00,Monday         
59,309384210.054281
89,34963392.6213603
444,95796493.4167736
702,4597200.
1757,309384210.054281
2,2, 6,21, 1, 8, 0.00,60.00,Monday         
59,490952857.539161
89,98129817.9784738
444,204227663.759169
702,4597200.
1757,490952857.539161
2,2, 6,21, 1, 9, 0.00,60.00,Monday         
59,487747540.65194
89,96660690.5880898
444,174055806.616312
702,4597200.
1757,487747540.65194
2,2, 6,21, 1,10, 0.00,60.00,Monday         
59,491563236.82129
89,96660690.5880898
444,167093070.352576
702,4597200.
1757,491563236.82129
2,2, 6,21, 1,11, 0.00,60.00,Monday         
59,513437765.229549
89,96660690.5880898
444,174055806.616312
702,4597200.
1757,513437765.229549
2,2, 6,21, 1,12, 0.00,60.00,Monday         
59,507510475.182125
89,96660690.5880898
444,177667514.306075
702,9024763.75912985
1757,507510475.182125
2,2, 6,21, 1,13, 0.00,60.00,Monday         
59,530228221.589871
89,96660690.5880898
444,179858086.836092
702,17876127.5240851
1757,530228221.589871
2,2, 6,21, 1,14, 0.00,60.00,Monday         
59,511709927.00109
89,96660690.5880898
444,167093070.352576
702,8831078.48610804
1757,511709927.00109
2,2, 6,21, 1,15, 0.00,60.00,Monday         
59,511914858.665943
89,96999359.5112913
444,167093070.352576
702,13011464.1442891
1757,511914858.665943
2,2, 6,21, 1,16, 0.00,60.00,Monday         
59,492488093.274024
89,96961729.6309355
444,177537174.74818
702,13219971.2838879
1757,492488093.274024
2,2, 6,21, 1,17, 0.00,60.00,Monday         
59,376532361.918552
89,55735571.4423995
444,140923939.573165
702,8759918.18117507
1757,376532361.918552
2,2, 6,21, 1,18, 0.00,60.00,Monday         
59,277279455.598725
89,33401809.5151402
444,69106004.4057846
702,8696932.02507972
1757,277279455.598725
2,2, 6,21, 1,19, 0.00,60.00,Monday         
59,269655597.180296
89,37724569.0766118
444,59822356.0541363
702,4597200.
1757,269655597.180296
2,2, 6,21, 1,20, 0.00,60.00,Monday         
59,282480075.420049
89,27302827.8427063
444,59822356.0541363
702,8659353.79567333
1757,282480075.420049
2,2, 6,21, 1,21, 0.00,60.00,Monday         
59,275546549.333603
89,27302827.8427063
444,55180531.8783121
702,4597200.
1757,275546549.333603
2,2, 6,21, 1,22, 0.00,60.00,Monday         
59,191025853.88368
89,13651413.9213531
444,55180531.8783121
702,4597200.
1757,191025853.88368
2,2, 6,21, 1,23, 0.00,60.00,Monday         
59,129045515.832804
89,6825706.96067657
444,55180531.8783121
702,4597200.
1757,129045515.832804
2,2, 6,21, 1,24, 0.00,60.00,Monday         
59,72339865.2674801
89,7915463.67251137
444,44533202.0018108
702,4597200.
1757,72339865.26748
2,3, 6,22, 1, 1, 0.00,60.00,Tuesday        
59,72340000.9157607
89,7915463.67251137
444,44533202.0018108
702,4597200.
1757,72340000.9157607
2,3, 6,22, 1, 2, 0.00,60.00,Tuesday        
59,72340000.9157607
89,7915463.67251137
444,44533202.0018108
702,4597200.
1757,72340000.9157607
2,3, 6,22, 1, 3, 0.00,60.00,Tuesday        
59,72340000.9157607
89,7915463.67251137
444,44533202.0018108
702,4597200.
1757,72340000.9157607
2,3, 6,22, 1, 4, 0.00,60.00,Tuesday        
59,72340000.9157607
89,7915463.67251137
444,44533202.0018108
702,4597200.
1757,72340000.9157607
2,3, 6,22, 1, 5, 0.00,60.00,Tuesday        
59,80258429.8383602
89,15830927.3450227
444,44533202.0018108
702,4597200.
1757,80258429.8383602
2,3, 6,22, 1, 6, 0.00,60.00,Tuesday        
59,279774076.043709
89,13216230.0394156
444,55180531.8783121
702,4597200.
1757,279774076.043709
2,3, 6,22, 1, 7, 0.00,60.00,Tuesday        
59,314084534.920498
89,33269983.5824781
444,95796493.4167736
702,4597200.
1757,314084534.920498
2,3, 6,22, 1, 8, 0.00,60.00,Tuesday        
59,503965127.178608
89,97036964.7082227
444,204227663.759169
702,4597200.
1757,503965127.178608
2,3, 6,22, 1, 9, 0.00,60.00,Tuesday        
59,472190510.658176
89,97112219.5322493
444,174055806.616312
702,4597200.
1757,472190510.658176
2,3, 6,22, 1,10, 0.00,60.00,Tuesday        
59,451763454.342929
89,96773572.8241296
444,167093070.352576
702,4597200.
1757,451763454.342929
2,3, 6,22, 1,11, 0.00,60.00,Tuesday        
59,452234757.853266
89,96660690.5880898
444,174055806.616312
702,13264386.7724333
1757,452234757.853266
2,3, 6,22, 1,12, 0.00,60.00,Tuesday        
59,463627950.071617
89,96660690.5880898
444,177667514.306075
702,17884548.8103589
1757,463627950.071617
2,3, 6,22, 1,13, 0.00,60.00,Tuesday        
59,492462794.75854
89,96660690.5880898
444,179858086.836092
702,17894706.3531732
1757,492462794.75854
2,3, 6,22, 1,14, 0.00,60.00,Tuesday        
59,485588990.912167
89,96660690.5880898
444,167093070.352576
702,13127480.4627668
1757,485588990.912167
2,3, 6,22, 1,15, 0.00,60.00,Tuesday        
59,517413109.524241
89,96660690.5880898
444,167093070.352576
702,8803477.92212105
1757,517413109.524241
2,3, 6,22, 1,16, 0.00,60.00,Tuesday        
59,537307990.317419
89,96660690.5880898
444,177537174.74818
702,15517065.5600488
1757,537307990.317419
2,3, 6,22, 1,17, 0.00,60.00,Tuesday        
59,464213501.866504
89,53700383.6600498
444,140923939.573165
702,10691101.8767689
1757,464213501.866504
2,3, 6,22, 1,18, 0.00,60.00,Tuesday        
59,330493644.511351
89,32586696.9608181
444,69106004.4057846
702,4597200.
1757,330493644.511351
2,3, 6,22, 1,19, 0.00,60.00,Tuesday        
59,323965673.492698
89,35795252.5807094
444,59822356.0541363
702,8659035.69544583
1757,323965673.492698
2,3, 6,22, 1,20, 0.00,60.00,Tuesday        
59,330897415.738185
89,27302827.8427063
444,59822356.0541363
702,4597200.
1757,330897415.738185
2,3, 6,22, 1,21, 0.00,60.00,Tuesday        
59,312089045.732692
89,27302827.8427063
444,55180531.8783121
702,4597200.
1757,312089045.732692
2,3, 6,22, 1,22, 0.00,60.00,Tuesday        
59,214352549.151701
89,13651413.9213531
444,55180531.8783121
702,4597200.
1757,214352549.151701
2,3, 6,22, 1,23, 0.00,60.00,Tuesday        
59,130154168.303215
89,6825706.96067657
444,55180531.8783121
702,4597200.
1757,130154168.303215
2,3, 6,22, 1,24, 0.00,60.00,Tuesday        
59,72339865.2674801
89,7915463.67251137
444,44533202.0018108
702,4597200.
1757,72339865.26748
2,4, 6,23, 1, 1, 0.00,60.00,Wednesday      
59,72340000.9157607
89,7915463.67251137
444,44533202.0018108
702,4597200.
1757,72340000.9157607
2,4, 6,23, 1, 2, 0.00,60.00,Wednesday      
59,72340000.9157607
89,7915463.67251137
444,44533202.0018108
702,4597200.
1757,72340000.9157607
2,4, 6,23, 1, 3, 0.00,60.00,Wednesday      
59,72340000.9157607
89,7915463.67251137
444,44533202.0018108
702,4597200.
1757,72340000.9157607
2,4, 6,23, 1, 4, 0.00,60.00,Wednesday      
59,72340000.9157607
89,7915463.67251137
444,44533202.0018108
702,4597200.
1757,72340000.9157607
2,4, 6,23, 1, 5, 0.00,60.00,Wednesday      
59,80258429.8383602
89,15830927.3450227
444,44533202.0018108
702,4597200.
1757,80258429.8383602
2,4, 6,23, 1, 6, 0.00,60.00,Wednesday      
59,291012457.227337
89,13216230.0394156
444,55180531.8783121
702,4597200.
1757,291012457.227337
2,4, 6,23, 1, 7, 0.00,60.00,Wednesday      
59,330588764.725465
89,33474916.3827385
444,95796493.4167736
702,4597200.
1757,330588764.725465
2,4, 6,23, 1, 8, 0.00,60.00,Wednesday      
59,549739787.746142
89,96811200.2361429
444,204227663.759169
702,4597200.
1757,549739787.746142
2,4, 6,23, 1, 9, 0.00,60.00,Wednesday      
59,509615211.510303
89,96660690.5880898
444,174055806.616312
702,4597200.
1757,509615211.510303
2,4, 6,23, 1,10, 0.00,60.00,Wednesday      
59,516302231.039113
89,96660690.5880898
444,167093070.352576
702,4597200.
1757,516302231.039113
2,4, 6,23, 1,11, 0.00,60.00,Wednesday      
59,525331888.240537
89,96660690.5880898
444,174055806.616312
702,17590836.4128143
1757,525331888.240537
2,4, 6,23, 1,12, 0.00,60.00,Wednesday      
59,537162667.781566
89,96660690.5880898
444,177667514.306075
702,17954334.3971357
1757,537162667.781567
2,4, 6,23, 1,13, 0.00,60.00,Wednesday      
59,555757602.46172
89,96660690.5880898
444,179858086.836092
702,13452652.9471817
1757,555757602.46172
2,4, 6,23, 1,14, 0.00,60.00,Wednesday      
59,497119397.183305
89,98683702.4220409
444,167093070.352576
702,13129566.8567159
1757,497119397.183305
2,4, 6,23, 1,15, 0.00,60.00,Wednesday      
59,497163067.06636
89,96924099.7505798
444,167093070.352576
702,13010589.1591952
1757,497163067.06636
2,4, 6,23, 1,16, 0.00,60.00,Wednesday      
59,507317137.702556
89,96660690.5880898
444,177537174.74818
702,13220341.3750626
1757,507317137.702556
2,4, 6,23, 1,17, 0.00,60.00,Wednesday      
59,431556688.5995
89,53763100.1273094
444,140923939.573165
702,8747484.59725478
1757,431556688.5995
2,4, 6,23, 1,18, 0.00,60.00,Wednesday      
59,313869932.669169
89,32747588.3339557
444,69106004.4057846
702,8692308.40909979
1757,313869932.669169
2,4, 6,23, 1,19, 0.00,60.00,Wednesday      
59,315013658.650432
89,36468618.770746
444,59822356.0541363
702,4597200.
1757,315013658.650432
2,4, 6,23, 1,20, 0.00,60.00,Wednesday      
59,320244261.621145
89,27302827.8427063
444,59822356.0541363
702,4597200.
1757,320244261.621144
2,4, 6,23, 1,21, 0.00,60.00,Wednesday      
59,307786923.529614
89,27302827.8427063
444,55180531.8783121
702,4597200.
1757,307786923.529614
2,4, 6,23, 1,22, 0.00,60.00,Wednesday      
59,173885199.278492
89,13651413.9213531
444,55180531.8783121
702,4597200.
1757,173885199.278492
2,4, 6,23, 1,23, 0.00,60.00,Wednesday      
59,138200051.578718
89,6825706.96067657
444,55180531.8783121
702,4597200.
1757,138200051.578718
2,4, 6,23, 1,24, 0.00,60.00,Wednesday      
59,72339865.2674801
89,7915463.67251137
444,44533202.0018108
702,4597200.
1757,72339865.26748
2,5, 6,24, 1, 1, 0.00,60.00,Thursday       
59,72340000.9157607
89,7915463.67251137
444,44533202.0018108
702,4597200.
1757,72340000.9157607
2,5, 6,24, 1, 2, 0.00,60.00,Thursday       
59,72340000.9157607
89,7915463.67251137
444,44533202.0018108
702,4597200.
1757,72340000.9157607
2,5, 6,24, 1, 3, 0.00,60.00,Thursday       
59,72340000.9157607
89,7915463.67251137
444,44533202.0018108
702,4597200.
1757,72340000.9157607
2,5, 6,24, 1, 4, 0.00,60.00,Thursday       
59,72340000.9157607
89,7915463.67251137
444,44533202.0018108
702,4597200.
1757,72340000.9157607
2,5, 6,24, 1, 5, 0.00,60.00,Thursday       
59,80258429.8383602
89,15830927.3450227
444,44533202.0018108
702,4597200.
1757,80258429.8383602
2,5, 6,24, 1, 6, 0.00,60.00,Thursday       
59,265695042.838462
89,13103653.6113218
444,55180531.8783121
702,4597200.
1757,265695042.838462
2,5, 6,24, 1, 7, 0.00,60.00,Thursday       
59,305554027.73197
89,33210544.4614749
444,95796493.4167736
702,4597200.
1757,305554027.73197
2,5, 6,24, 1, 8, 0.00,60.00,Thursday       
59,538813148.195466
89,97064772.4231791
444,204227663.759169
702,4597200.
1757,538813148.195466
2,5, 6,24, 1, 9, 0.00,60.00,Thursday       
59,517374069.541234
89,96660690.5880898
444,174055806.616312
702,4597200.
1757,517374069.541234
2,5, 6,24, 1,10, 0.00,60.00,Thursday       
59,513104580.578689
89,96660690.5880898
444,167093070.352576
702,8775545.60702818
1757,513104580.578689
2,5, 6,24, 1,11, 0.00,60.00,Thursday       
59,555812153.717706
89,96660690.5880898
444,174055806.616312
702,13355540.8214733
1757,555812153.717706
2,5, 6,24, 1,12, 0.00,60.00,Thursday       
59,547864677.072433
89,96660690.5880898
444,177667514.306075
702,17941239.4150247
1757,547864677.072433
2,5, 6,24, 1,13, 0.00,60.00,Thursday       
59,568709500.33778
89,96660690.5880898
444,179858086.836092
702,17877577.27667
1757,568709500.33778
2,5, 6,24, 1,14, 0.00,60.00,Thursday       
59,539425982.684918
89,96660690.5880898
444,167093070.352576
702,8830130.90343208
1757,539425982.684918
2,5, 6,24, 1,15, 0.00,60.00,Thursday       
59,525144704.007375
89,96811210.1095127
444,167093070.352576
702,13008982.2414908
1757,525144704.007376
2,5, 6,24, 1,16, 0.00,60.00,Thursday       
59,535951439.686611
89,96660690.5880898
444,177537174.74818
702,13211484.9576236
1757,535951439.686611
2,5, 6,24, 1,17, 0.00,60.00,Thursday       
59,392596825.518706
89,53942460.2848056
444,140923939.573165
702,8759421.74058786
1757,392596825.518706
2,5, 6,24, 1,18, 0.00,60.00,Thursday       
59,286876341.797596
89,33122039.8999962
444,69106004.4057846
702,8693471.20370999
1757,286876341.797596
2,5, 6,24, 1,19, 0.00,60.00,Thursday       
59,288376747.282641
89,37336632.3069202
444,59822356.0541363
702,4597200.
1757,288376747.282641
2,5, 6,24, 1,20, 0.00,60.00,Thursday       
59,319880645.200974
89,27302827.8427063
444,59822356.0541363
702,8664561.18097752
1757,319880645.200974
2,5, 6,24, 1,21, 0.00,60.00,Thursday       
59,303731592.526881
89,27302827.8427063
444,55180531.8783121
702,4597200.
1757,303731592.526881
2,5, 6,24, 1,22, 0.00,60.00,Thursday       
59,196991777.042367
89,13651413.9213531
444,55180531.8783121
702,4597200.
1757,196991777.042367
2,5, 6,24, 1,23, 0.00,60.00,Thursday       
59,128744181.907753
89,6825706.96067657
444,55180531.8783121
702,4597200.
1757,128744181.907753
2,5, 6,24, 1,24, 0.00,60.00,Thursday       
59,72339865.2674801
89,7915463.67251137
444,44533202.0018108
702,4597200.
1757,72339865.26748
2,6, 6,25, 1, 1, 0.00,60.00,Friday         
59,72340000.9157607
89,7915463.67251137
444,44533202.0018108
702,4597200.
1757,72340000.9157607
2,6, 6,25, 1, 2, 0.00,60.00,Friday         
59,72340000.9157607
89,7915463.67251137
444,44533202.0018108
702,4597200.
1757,72340000.9157607
2,6, 6,25, 1, 3, 0.00,60.00,Friday         
59,72340000.9157607
89,7915463.67251137
444,44533202.0018108
702,4597200.
1757,72340000.9157607
2,6, 6,25, 1, 4, 0.00,60.00,Friday         
59,72340000.9157607
89,7915463.67251137
444,44533202.0018108
702,4597200.
1757,72340000.9157607
2,6, 6,25, 1, 5, 0.00,60.00,Friday         
59,80258429.8383602
89,15830927.3450227
444,44533202.0018108
702,4597200.
1757,80258429.8383602
2,6, 6,25, 1, 6, 0.00,60.00,Friday         
59,267104635.808099
89,13216230.0394156
444,55180531.8783121
702,4597200.
1757,267104635.808099
2,6, 6,25, 1, 7, 0.00,60.00,Friday         
59,309071842.615308
89,33574456.9831067
444,95796493.4167736
702,4597200.
1757,309071842.615308
2,6, 6,25, 1, 8, 0.00,60.00,Friday         
59,522852054.843993
89,96945894.1811727
444,204227663.759169
702,4597200.
1757,522852054.843993
2,6, 6,25, 1, 9, 0.00,60.00,Friday         
59,504400954.261567
89,96660690.5880898
444,174055806.616312
702,4597200.
1757,504400954.261567
2,6, 6,25, 1,10, 0.00,60.00,Friday         
59,483203015.199597
89,96660690.5880898
444,167093070.352576
702,4597200.
1757,483203015.199597
2,6, 6,25, 1,11, 0.00,60.00,Friday         
59,526244912.326464
89,96660690.5880898
444,174055806.616312
702,13239665.8246127
1757,526244912.326464
2,6, 6,25, 1,12, 0.00,60.00,Friday         
59,533483562.583202
89,96660690.5880898
444,177667514.306075
702,17889229.907141
1757,533483562.583202
2,6, 6,25, 1,13, 0.00,60.00,Friday         
59,578277507.406101
89,96660690.5880898
444,179858086.836092
702,17890727.3450011
1757,578277507.406101
2,6, 6,25, 1,14, 0.00,60.00,Friday         
59,547151474.457283
89,96660690.5880898
444,167093070.352576
702,13100803.2442641
1757,547151474.457283
2,6, 6,25, 1,15, 0.00,60.00,Friday         
59,556148067.108951
89,96660690.5880898
444,167093070.352576
702,8800416.60187389
1757,556148067.108951
2,6, 6,25, 1,16, 0.00,60.00,Friday         
59,566680307.18506
89,96660690.5880898
444,177537174.74818
702,14831902.6832504
1757,566680307.18506
2,6, 6,25, 1,17, 0.00,60.00,Friday         
59,451335425.867251
89,53763100.1273094
444,140923939.573165
702,11342856.469431
1757,451335425.867251
2,6, 6,25, 1,18, 0.00,60.00,Friday         
59,331378303.859565
89,33443188.5321583
444,69106004.4057846
702,4597200.
1757,331378303.859565
2,6, 6,25, 1,19, 0.00,60.00,Friday         
59,308609853.437401
89,38531281.1651575
444,59822356.0541363
702,8642858.84285365
1757,308609853.437401
2,6, 6,25, 1,20, 0.00,60.00,Friday         
59,326896731.871709
89,27302827.8427063
444,59822356.0541363
702,4597200.
1757,326896731.871709
2,6, 6,25, 1,21, 0.00,60.00,Friday         
59,317364395.625857
89,27302827.8427063
444,55180531.8783121
702,4597200.
1757,317364395.625857
2,6, 6,25, 1,22, 0.00,60.00,Friday         
59,210723185.498604
89,13651413.9213531
444,55180531.8783121
702,4597200.
1757,210723185.498604
2,6, 6,25, 1,23, 0.00,60.00,Friday         
59,128770913.16222
89,6825706.96067657
444,55180531.8783121
702,4597200.
1757,128770913.16222
2,6, 6,25, 1,24, 0.00,60.00,Friday         
59,72339865.2674801
89,7915463.67251137
444,44533202.0018108
702,4597200.
1757,72339865.26748
2,7, 6,26, 1, 1, 0.00,60.00,Saturday       
59,61036294.1179892
89,7915463.67251137
444,33399901.5013581
702,4597200.
1757,61036294.1179892
2,7, 6,26, 1, 2, 0.00,60.00,Saturday       
59,61036294.1179892
89,7915463.67251137
444,33399901.5013581
702,4597200.
1757,61036294.1179892
2,7, 6,26, 1, 3, 0.00,60.00,Saturday       
59,61036294.1179892
89,7915463.67251137
444,33399901.5013581
702,4597200.
1757,61036294.1179892
2,7, 6,26, 1, 4, 0.00,60.00,Saturday       
59,61036294.1179892
89,7915463.67251137
444,33399901.5013581
702,4597200.
1757,61036294.1179892
2,7, 6,26, 1, 5, 0.00,60.00,Saturday       
59,61036294.1179892
89,7915463.67251137
444,33399901.5013581
702,4597200.
1757,61036294.1179892
2,7, 6,26, 1, 6, 0.00,60.00,Saturday       
59,283646523.001715
89,13042581.1572445
444,55180531.8783121
702,4597200.
1757,283646523.001715
2,7, 6,26, 1, 7, 0.00,60.00,Saturday       
59,283326809.008907
89,11048611.146488
444,73747828.5816088
702,4597200.
1757,283326809.008907
2,7, 6,26, 1, 8, 0.00,60.00,Saturday       
59,341868239.835311
89,32295485.0200565
444,85222049.4632748
702,4597200.
1757,341868239.835311
2,7, 6,26, 1, 9, 0.00,60.00,Saturday       
59,360708436.380569
89,32220230.1960299
444,93345241.7709671
702,4597200.
1757,360708436.380569
2,7, 6,26, 1,10, 0.00,60.00,Saturday       
59,363703303.732452
89,32220230.1960299
444,89863873.6390989
702,4597200.
1757,363703303.732452
2,7, 6,26, 1,11, 0.00,60.00,Saturday       
59,382006965.310481
89,32220230.1960299
444,97987065.9467912
702,4597200.
1757,382006965.310481
2,7, 6,26, 1,12, 0.00,60.00,Saturday       
59,318952990.06069
89,16110115.098015
444,72652542.3166
702,4597200.
1757,318952990.06069
2,7, 6,26, 1,13, 0.00,60.00,Saturday       
59,313008063.922816
89,16110115.098015
444,63368893.9649517
702,4597200.
1757,313008063.922816
2,7, 6,26, 1,14, 0.00,60.00,Saturday       
59,283569504.571866
89,16128930.0381928
444,57566613.7451715
702,4597200.
1757,283569504.571866
2,7, 6,26, 1,15, 0.00,60.00,Saturday       
59,254453647.240412
89,16110115.098015
444,52924789.5693473
702,4597200.
1757,254453647.240412
2,7, 6,26, 1,16, 0.00,60.00,Saturday       
59,260334032.00247
89,16116386.7447409
444,54085245.6133033
702,4597200.
1757,260334032.00247