Program Version,EnergyPlus-Windows-64 8.0.0.008, YMD=2018.11.12 23:10
1,5,Environment Title[],Latitude[deg],Longitude[deg],Time Zone[],Elevation[m]
2,6,Day of Simulation[],Month[],Day of Month[],DST Indicator[1=yes 0=no],Hour[],StartMinute[],EndMinute[],DayType
3,3,Cumulative Day of Simulation[],Month[],Day of Month[],DST Indicator[1=yes 0=no],DayType  ! When Daily Report Variables Requested
4,2,Cumulative Days of Simulation[],Month[]  ! When Monthly Report Variables Requested
5,1,Cumulative Days of Simulation[] ! When Run Period Report Variables Requested
8,1,PERIMETER_TOP_ZN_3,Zone Outdoor Air Drybulb Temperature [C] !Each Call
831,1,PERIMETER_TOP_ZN_3,Zone Mean Air Temperature [C] !Each Call
1912,1,CUSTOM_ZONE_CLGT_SETPOINT,Schedule Value [] !Each Call
2097,1,PERIMETER_TOP_ZN_3 VAV BOX OUTLET NODE,System Node Temperature [C] !Each Call
2098,1,PERIMETER_TOP_ZN_3 VAV BOX OUTLET NODE,System Node Mass Flow Rate [kg/s] !Each Call
End of Data Dictionary
1,MIAMI INTL AP ANN HTG 99.6% CONDNS DB,  25.82, -80.30,  -5.00,  11.00
2,1, 1,21, 0, 1, 0.00, 1.00,WinterDesignDay
2097,14.7215975084036
2098,0.0
8,8.64932348607993
831,15.509865147069
1912,30.
2,1, 1,21, 0, 1, 1.00, 2.00,WinterDesignDay
2097,14.6750386705585
2098,0.0
8,8.64932348607993
831,15.372592329147
1912,30.
2,1, 1,21, 0, 1, 2.00, 3.00,WinterDesignDay
2097,14.6014253880205
2098,0.0
8,8.64932348607993
831,15.23189010255
1912,30.
2,1, 1,21, 0, 1, 3.00, 4.00,WinterDesignDay
2097,14.5243125236923
2098,0.0
8,8.64932348607993
831,15.1061641678574
1912,30.
2,1, 1,21, 0, 1, 4.00, 5.00,WinterDesignDay
2097,20.2249683786815
2098,2.61361481285024
8,8.64932348607993
831,15.5478344690692
1912,30.
2,1, 1,21, 0, 1, 5.00, 6.00,WinterDesignDay
2097,14.3081400871546
2098,2.61361481285024
8,8.64932348607993
831,15.5945517389456
1912,30.
2,1, 1,21, 0, 1, 6.00, 7.00,WinterDesignDay
2097,16.8257853204258
2098,2.61361481285024
8,8.64932348607993
831,15.5994335249974
1912,30.
2,1, 1,21, 0, 1, 7.00, 8.00,WinterDesignDay
2097,16.4263907317403
2098,2.61361481285024
8,8.64932348607993
831,15.5999545183857
1912,30.
2,1, 1,21, 0, 1, 8.00, 9.00,WinterDesignDay
2097,16.3828988982222
2098,2.61361481285024
8,8.64932348607993
831,15.6000100942514
1912,30.
2,1, 1,21, 0, 1, 9.00,10.00,WinterDesignDay
2097,16.3779539670305
2098,2.61361481285024
8,8.64932348607993
831,15.6000175205606
1912,30.
2,1, 1,21, 0, 1,10.00,11.00,WinterDesignDay
2097,16.3770799307747
2098,2.61361481285024
8,8.64932348607993
831,15.6000182817585
1912,30.
2,1, 1,21, 0, 1,11.00,12.00,WinterDesignDay
2097,16.3767421222007
2098,2.61361481285024
8,8.64932348607993
831,15.6000177914633
1912,30.
2,1, 1,21, 0, 1,12.00,13.00,WinterDesignDay
2097,16.376514176061
2098,2.61361481285024
8,8.64932348607993
831,15.6000169708132
1912,30.
2,1, 1,21, 0, 1,13.00,14.00,WinterDesignDay
2097,16.3762368714646
2098,2.61361481285024
8,8.64932348607993
831,15.60001607002
1912,30.
2,1, 1,21, 0, 1,14.00,15.00,WinterDesignDay
2097,16.375964779628
2098,2.61361481285024
8,8.64932348607993
831,15.6000151802014
1912,30.
2,1, 1,21, 0, 1,15.00,16.00,WinterDesignDay
2097,16.3757058423596
2098,2.61361481285024
8,8.64932348607993
831,15.6000143401526
1912,30.
2,1, 1,21, 0, 1,16.00,17.00,WinterDesignDay
2097,16.3754486327192
2098,2.61361481285024
8,8.64932348607993
831,15.6000135688325
1912,30.
2,1, 1,21, 0, 1,17.00,18.00,WinterDesignDay
2097,16.3751924799074
2098,2.61361481285024
8,8.64932348607993
831,15.6000128753698
1912,30.
2,1, 1,21, 0, 1,18.00,19.00,WinterDesignDay
2097,16.374937609583
2098,2.61361481285024
8,8.64932348607993
831,15.6000122621674
1912,30.
2,1, 1,21, 0, 1,19.00,20.00,WinterDesignDay
2097,16.3746820570061
2098,2.61361481285024
8,8.64932348607993
831,15.6000117265779
1912,30.
2,1, 1,21, 0, 1,20.00,21.00,WinterDesignDay
2097,16.3744277818928
2098,2.61361481285024
8,8.64932348607993
831,15.6000112627315
1912,30.
2,1, 1,21, 0, 1,21.00,22.00,WinterDesignDay
2097,16.3741763552166
2098,2.61361481285024
8,8.64932348607993
831,15.6000108630179
1912,30.
2,1, 1,21, 0, 1,22.00,23.00,WinterDesignDay
2097,16.3739282907968
2098,2.61361481285024
8,8.64932348607993
831,15.6000105192795
1912,30.
2,1, 1,21, 0, 1,23.00,24.00,WinterDesignDay
2097,16.3736840549972
2098,2.61361481285024
8,8.64932348607993
831,15.6000102236035
1912,30.
2,1, 1,21, 0, 1,24.00,25.00,WinterDesignDay
2097,16.3734439549475
2098,2.61361481285024
8,8.64932348607993
831,15.6000099687385
1912,30.
2,1, 1,21, 0, 1,25.00,26.00,WinterDesignDay
2097,16.3732072489266
2098,2.61361481285024
8,8.64932348607993
831,15.6000097482214
1912,30.
2,1, 1,21, 0, 1,26.00,27.00,WinterDesignDay
2097,16.3730039578753
2098,2.61361481285024
8,8.64932348607993
831,15.6000095567186
1912,30.
2,1, 1,21, 0, 1,27.00,28.00,WinterDesignDay
2097,16.3727964997265
2098,2.61361481285024
8,8.64932348607993
831,15.6000093884624
1912,30.
2,1, 1,21, 0, 1,28.00,29.00,WinterDesignDay
2097,16.3725842926707
2098,2.61361481285024
8,8.64932348607993
831,15.6000092391165
1912,30.
2,1, 1,21, 0, 1,29.00,30.00,WinterDesignDay
2097,16.372375381276
2098,2.61361481285024
8,8.64932348607993
831,15.6000091057497
1912,30.
2,1, 1,21, 0, 1,30.00,31.00,WinterDesignDay
2097,16.3721710003038
2098,2.61361481285024
8,8.64932348607993
831,15.6000089861539
1912,30.
2,1, 1,21, 0, 1,31.00,32.00,WinterDesignDay
2097,16.3719715089528
2098,2.61361481285024
8,8.64932348607993
831,15.6000088784372
1912,30.
2,1, 1,21, 0, 1,32.00,33.00,WinterDesignDay
2097,16.371776570946
2098,2.61361481285024
8,8.64932348607993
831,15.6000087809373
1912,30.
2,1, 1,21, 0, 1,33.00,34.00,WinterDesignDay
2097,16.3715859063898
2098,2.61361481285024
8,8.64932348607993
831,15.6000086921874
1912,30.
2,1, 1,21, 0, 1,34.00,35.00,WinterDesignDay
2097,14.7369217657382
2098,0.0
8,8.64932348607993
831,15.5100995969914
1912,30.
2,1, 1,21, 0, 1,35.00,36.00,WinterDesignDay
2097,14.6893542951486
2098,0.0
8,8.64932348607993
831,15.3731755329509
1912,30.
2,1, 1,21, 0, 1,36.00,37.00,WinterDesignDay
2097,14.6153901277516
2098,0.0
8,8.64932348607993
831,15.2328120036205
1912,30.
2,1, 1,21, 0, 1,37.00,38.00,WinterDesignDay
2097,14.5381271754497
2098,0.0
8,8.64932348607993
831,15.1073407481607
1912,30.
2,1, 1,21, 0, 1,38.00,39.00,WinterDesignDay
2097,20.2147108426248
2098,2.61361481285024
8,8.64932348607993
831,15.547954369604
1912,30.
2,1, 1,21, 0, 1,39.00,40.00,WinterDesignDay
2097,14.3121315281783
2098,2.61361481285024
8,8.64932348607993
831,15.5945634850763
1912,30.
2,1, 1,21, 0, 1,40.00,41.00,WinterDesignDay
2097,16.8242193297478
2098,2.61361481285024
8,8.64932348607993
831,15.5994332375452
1912,30.
2,1, 1,21, 0, 1,41.00,42.00,WinterDesignDay
2097,16.4262066258594
2098,2.61361481285024
8,8.64932348607993
831,15.5999532828247
1912,30.
2,1, 1,21, 0, 1,42.00,43.00,WinterDesignDay
2097,16.383182198841
2098,2.61361481285024
8,8.64932348607993
831,15.6000089370094
1912,30.
2,1, 1,21, 0, 1,43.00,44.00,WinterDesignDay
2097,16.378310687101
2098,2.61361481285024
8,8.64932348607993
831,15.6000164976399
1912,30.
2,1, 1,21, 0, 1,44.00,45.00,WinterDesignDay
2097,16.3773887121916
2098,2.61361481285024
8,8.64932348607993
831,15.6000173781322
1912,30.
2,1, 1,21, 0, 1,45.00,46.00,WinterDesignDay
2097,16.3769867573734
2098,2.61361481285024
8,8.64932348607993
831,15.6000169891035
1912,30.
2,1, 1,21, 0, 1,46.00,47.00,WinterDesignDay
2097,16.3766573820559
2098,2.61361481285024
8,8.64932348607993
831,15.6000162544589
1912,30.
2,1, 1,21, 0, 1,47.00,48.00,WinterDesignDay
2097,16.376356006124
2098,2.61361481285024
8,8.64932348607993
831,15.6000154277778
1912,30.
2,1, 1,21, 0, 1,48.00,49.00,WinterDesignDay
2097,16.3760946173437
2098,2.61361481285024
8,8.64932348607993
831,15.6000146015037
1912,30.
2,1, 1,21, 0, 1,49.00,50.00,WinterDesignDay
2097,16.3758016060793
2098,2.61361481285024
8,8.64932348607993
831,15.6000138144945
1912,30.
2,1, 1,21, 0, 1,50.00,51.00,WinterDesignDay
2097,16.3755242586702
2098,2.61361481285024
8,8.64932348607993
831,15.60001308768
1912,30.
2,1, 1,21, 0, 1,51.00,52.00,WinterDesignDay
2097,16.3752592322299
2098,2.61361481285024
8,8.64932348607993
831,15.6000124322406
1912,30.
2,1, 1,21, 0, 1,52.00,53.00,WinterDesignDay
2097,16.3749946402212
2098,2.61361481285024
8,8.64932348607993
831,15.6000118520194
1912,30.
2,1, 1,21, 0, 1,53.00,54.00,WinterDesignDay
2097,16.3747302712133
2098,2.61361481285024
8,8.64932348607993
831,15.600011345354
1912,30.
2,1, 1,21, 0, 1,54.00,55.00,WinterDesignDay
2097,16.3744666733074
2098,2.61361481285024
8,8.64932348607993
831,15.6000109069925
1912,30.
2,1, 1,21, 0, 1,55.00,56.00,WinterDesignDay
2097,16.3742138161016
2098,2.61361481285024
8,8.64932348607993
831,15.600010529849
1912,30.
2,1, 1,21, 0, 1,56.00,57.00,WinterDesignDay
2097,16.3739982668072
2098,2.61361481285024
8,8.64932348607993
831,15.6000102063826
1912,30.
2,1, 1,21, 0, 1,57.00,58.00,WinterDesignDay
2097,16.3737769501654
2098,2.61361481285024
8,8.64932348607993
831,15.6000099280297
1912,30.
2,1, 1,21, 0, 1,58.00,59.00,WinterDesignDay
2097,16.3735485908846
2098,2.61361481285024
8,8.64932348607993
831,15.6000096875164
1912,30.
2,1, 1,21, 0, 1,59.00,60.00,WinterDesignDay
2097,16.3733218184742
2098,2.61361481285024
8,8.64932348607993
831,15.6000094790872
1912,30.
2,1, 1,21, 0, 2, 0.00, 1.00,WinterDesignDay
2097,16.373098177609
2098,2.61361481285024
8,8.64932348607993
831,15.6000092979583
1912,30.
2,1, 1,21, 0, 2, 1.00, 2.00,WinterDesignDay
2097,16.3728827960355
2098,2.61361481285024
8,8.64932348607993
831,15.6000091399847
1912,30.
2,1, 1,21, 0, 2, 2.00, 3.00,WinterDesignDay
2097,16.3726734471253
2098,2.61361481285024
8,8.64932348607993
831,15.6000090015242
1912,30.
2,1, 1,21, 0, 2, 3.00, 4.00,WinterDesignDay
2097,16.3724682519534
2098,2.61361481285024
8,8.64932348607993
831,15.6000088794259
1912,30.
2,1, 1,21, 0, 2, 4.00, 5.00,WinterDesignDay
2097,16.3722668027942
2098,2.61361481285024
8,8.64932348607993
831,15.6000087710146
1912,30.
2,1, 1,21, 0, 2, 5.00, 6.00,WinterDesignDay
2097,16.3720689705522
2098,2.61361481285024
8,8.64932348607993
831,15.6000086740565
1912,30.
2,1, 1,21, 0, 2, 6.00, 7.00,WinterDesignDay
2097,16.3718747190806
2098,2.61361481285024
8,8.64932348607993
831,15.6000085867054
1912,30.
2,1, 1,21, 0, 2, 7.00, 8.00,WinterDesignDay
2097,16.3716863324406
2098,2.61361481285024
8,8.64932348607993
831,15.6000085074383
1912,30.
2,1, 1,21, 0, 2, 8.00, 9.00,WinterDesignDay
2097,14.7391584677369
2098,0.0
8,8.64932348607993
831,15.5100880042901
1912,30.
2,1, 1,21, 0, 2, 9.00,10.00,WinterDesignDay
2097,14.6916255146091
2098,0.0
8,8.64932348607993
831,15.3731468660961
1912,30.
2,1, 1,21, 0, 2,10.00,11.00,WinterDesignDay
2097,14.6177586233353
2098,0.0
8,8.64932348607993
831,15.2327664588438
1912,30.
2,1, 1,21, 0, 2,11.00,12.00,WinterDesignDay
2097,14.5405951786396
2098,0.0
8,8.64932348607993
831,15.1073064710195
1912,30.
2,1, 1,21, 0, 2,12.00,13.00,WinterDesignDay
2097,20.214429192795
2098,2.61361481285024
8,8.64932348607993
831,15.5479503705676
1912,30.
2,1, 1,21, 0, 2,13.00,14.00,WinterDesignDay
2097,14.311697431279
2098,2.61361481285024
8,8.64932348607993
831,15.5945629559229
1912,30.
2,1, 1,21, 0, 2,14.00,15.00,WinterDesignDay
2097,16.8243228861728
2098,2.61361481285024
8,8.64932348607993
831,15.5994330486681
1912,30.
2,1, 1,21, 0, 2,15.00,16.00,WinterDesignDay
2097,16.4266859970279
2098,2.61361481285024
8,8.64932348607993
831,15.5999531336349
1912,30.
2,1, 1,21, 0, 2,16.00,17.00,WinterDesignDay
2097,16.3840732016562
2098,2.61361481285024
8,8.64932348607993
831,15.6000087872261
1912,30.
2,1, 1,21, 0, 2,17.00,18.00,WinterDesignDay
2097,16.379935393715
2098,2.61361481285024
8,8.64932348607993
831,15.6000163517172
1912,30.
2,1, 1,21, 0, 2,18.00,19.00,WinterDesignDay
2097,16.3798736384907
2098,2.61361481285024
8,8.64932348607993
831,15.6000172402991
1912,30.
2,1, 1,21, 0, 2,19.00,20.00,WinterDesignDay
2097,16.3796631834971
2098,2.61361481285024
8,8.64932348607993
831,15.6000168570889
1912,30.
2,1, 1,21, 0, 2,20.00,21.00,WinterDesignDay
2097,16.3792704195402
2098,2.61361481285024
8,8.64932348607993
831,15.6000161273529
1912,30.
2,1, 1,21, 0, 2,21.00,22.00,WinterDesignDay
2097,16.3788787564204
2098,2.61361481285024
8,8.64932348607993
831,15.6000153053993
1912,30.
2,1, 1,21, 0, 2,22.00,23.00,WinterDesignDay
2097,16.3784794082955
2098,2.61361481285024
8,8.64932348607993
831,15.6000144836301
1912,30.
2,1, 1,21, 0, 2,23.00,24.00,WinterDesignDay
2097,16.3780853359792
2098,2.61361481285024
8,8.64932348607993
831,15.6000137019662
1912,30.
2,1, 1,21, 0, 2,24.00,25.00,WinterDesignDay
2097,16.3776783631657
2098,2.61361481285024
8,8.64932348607993
831,15.6000129804609
1912,30.
2,1, 1,21, 0, 2,25.00,26.00,WinterDesignDay
2097,16.3773324793711
2098,2.61361481285024
8,8.64932348607993
831,15.6000123299346
1912,30.
2,1, 1,21, 0, 2,26.00,27.00,WinterDesignDay
2097,16.3770127058371
2098,2.61361481285024
8,8.64932348607993
831,15.6000117538849
1912,30.
2,1, 1,21, 0, 2,27.00,28.00,WinterDesignDay
2097,16.3766940119511
2098,2.61361481285024
8,8.64932348607993
831,15.6000112507215
1912,30.
2,1, 1,21, 0, 2,28.00,29.00,WinterDesignDay
2097,16.376375010635
2098,2.61361481285024
8,8.64932348607993
831,15.6000108154274
1912,30.
2,1, 1,21, 0, 2,29.00,30.00,WinterDesignDay
2097,16.376096605708
2098,2.61361481285024
8,8.64932348607993
831,15.6000104412877
1912,30.
2,1, 1,21, 0, 2,30.00,31.00,WinterDesignDay
2097,16.3758083321163
2098,2.61361481285024
8,8.64932348607993
831,15.6000101196382
1912,30.
2,1, 1,21, 0, 2,31.00,32.00,WinterDesignDay
2097,16.3755308886677
2098,2.61361481285024
8,8.64932348607993
831,15.600009842732
1912,30.
2,1, 1,21, 0, 2,32.00,33.00,WinterDesignDay
2097,16.3752647772291
2098,2.61361481285024
8,8.64932348607993
831,15.6000096040086
1912,30.
2,1, 1,21, 0, 2,33.00,34.00,WinterDesignDay
2097,16.3750034642151
2098,2.61361481285024
8,8.64932348607993
831,15.6000093978378
1912,30.
2,1, 1,21, 0, 2,34.00,35.00,WinterDesignDay
2097,16.3747454399039
2098,2.61361481285024
8,8.64932348607993
831,15.6000092192789
1912,30.
2,1, 1,21, 0, 2,35.00,36.00,WinterDesignDay
2097,16.3744902023257
2098,2.61361481285024
8,8.64932348607993
831,15.6000090639805
1912,30.
2,1, 1,21, 0, 2,36.00,37.00,WinterDesignDay
2097,16.3742376327208
2098,2.61361481285024
8,8.64932348607993
831,15.6000089281648
1912,30.
2,1, 1,21, 0, 2,37.00,38.00,WinterDesignDay
2097,16.3739992468196
2098,2.61361481285024
8,8.64932348607993
831,15.6000088086445
1912,30.
2,1, 1,21, 0, 2,38.00,39.00,WinterDesignDay
2097,16.3737699398455
2098,2.61361481285024
8,8.64932348607993
831,15.6000087027085
1912,30.
2,1, 1,21, 0, 2,39.00,40.00,WinterDesignDay
2097,16.3735453750453
2098,2.61361481285024
8,8.64932348607993
831,15.6000086081118
1912,30.
2,1, 1,21, 0, 2,40.00,41.00,WinterDesignDay
2097,16.3733245837468
2098,2.61361481285024
8,8.64932348607993
831,15.6000085230103
1912,30.
2,1, 1,21, 0, 2,41.00,42.00,WinterDesignDay
2097,16.3731072227916
2098,2.61361481285024
8,8.64932348607993
831,15.6000084458917
1912,30.
2,1, 1,21, 0, 2,42.00,43.00,WinterDesignDay
2097,14.7396739594623
2098,0.0
8,8.64932348607993
831,15.5099298648718
1912,30.
2,1, 1,21, 0, 2,43.00,44.00,WinterDesignDay
2097,14.692141029548
2098,0.0
8,8.64932348607993
831,15.3727573442802
1912,30.
2,1, 1,21, 0, 2,44.00,45.00,WinterDesignDay
2097,14.6182885563642
2098,0.0
8,8.64932348607993
831,15.2321529959412
1912,30.
2,1, 1,21, 0, 2,45.00,46.00,WinterDesignDay
2097,14.5411401290164
2098,0.0
8,8.64932348607993
831,15.1065077220788
1912,30.
2,1, 1,21, 0, 2,46.00,47.00,WinterDesignDay
2097,20.2218869761748
2098,2.61361481285024
8,8.64932348607993
831,15.5478682007564
1912,30.
2,1, 1,21, 0, 2,47.00,48.00,WinterDesignDay
2097,14.3091034042651
2098,2.61361481285024
8,8.64932348607993
831,15.5945545692058
1912,30.
2,1, 1,21, 0, 2,48.00,49.00,WinterDesignDay
2097,16.8250267161694
2098,2.61361481285024
8,8.64932348607993
831,15.5994321037857
1912,30.
2,1, 1,21, 0, 2,49.00,50.00,WinterDesignDay
2097,16.4259785665285
2098,2.61361481285024
8,8.64932348607993
831,15.5999529789756
1912,30.
2,1, 1,21, 0, 2,50.00,51.00,WinterDesignDay
2097,16.3825376483559
2098,2.61361481285024
8,8.64932348607993
831,15.6000087026079
1912,30.
2,1, 1,21, 0, 2,51.00,52.00,WinterDesignDay
2097,16.377620281387
2098,2.61361481285024
8,8.64932348607993
831,15.6000162738705
1912,30.
2,1, 1,21, 0, 2,52.00,53.00,WinterDesignDay
2097,16.3767740184846
2098,2.61361481285024
8,8.64932348607993
831,15.6000171621655
1912,30.
2,1, 1,21, 0, 2,53.00,54.00,WinterDesignDay
2097,16.3764569368245
2098,2.61361481285024
8,8.64932348607993
831,15.6000167825609
1912,30.
2,1, 1,21, 0, 2,54.00,55.00,WinterDesignDay
2097,16.3762212446266
2098,2.61361481285024
8,8.64932348607993
831,15.6000160579204
1912,30.
2,1, 1,21, 0, 2,55.00,56.00,WinterDesignDay
2097,16.3759836621272
2098,2.61361481285024
8,8.64932348607993
831,15.6000152413002
1912,30.
2,1, 1,21, 0, 2,56.00,57.00,WinterDesignDay
2097,16.3757464597337
2098,2.61361481285024
8,8.64932348607993
831,15.6000144247627
1912,30.
2,1, 1,21, 0, 2,57.00,58.00,WinterDesignDay
2097,16.3755143709487
2098,2.61361481285024
8,8.64932348607993
831,15.6000136480152
1912,30.
2,1, 1,21, 0, 2,58.00,59.00,WinterDesignDay
2097,16.3752823137155
2098,2.61361481285024
8,8.64932348607993
831,15.6000129312627
1912,30.
2,1, 1,21, 0, 2,59.00,60.00,WinterDesignDay
2097,16.3750573300838
2098,2.61361481285024
8,8.64932348607993
831,15.6000122850349
1912,30.
2,1, 1,21, 0, 3, 0.00, 1.00,WinterDesignDay
2097,16.3748299433233
2098,2.61361481285024
8,8.64932348607993
831,15.6000117128265
1912,30.
2,1, 1,21, 0, 3, 1.00, 2.00,WinterDesignDay
2097,16.3746011385458
2098,2.61361481285024
8,8.64932348607993
831,15.6000112129905
1912,30.
2,1, 1,21, 0, 3, 2.00, 3.00,WinterDesignDay
2097,16.3743735599739
2098,2.61361481285024
8,8.64932348607993
831,15.6000107805445
1912,30.
2,1, 1,21, 0, 3, 3.00, 4.00,WinterDesignDay
2097,16.3741767026524
2098,2.61361481285024
8,8.64932348607993
831,15.600010408801
1912,30.
2,1, 1,21, 0, 3, 4.00, 5.00,WinterDesignDay
2097,16.3739740108552
2098,2.61361481285024
8,8.64932348607993
831,15.6000100892465
1912,30.
2,1, 1,21, 0, 3, 5.00, 6.00,WinterDesignDay
2097,16.3737650826513
2098,2.61361481285024
8,8.64932348607993
831,15.6000098141266
1912,30.
2,1, 1,21, 0, 3, 6.00, 7.00,WinterDesignDay
2097,16.3735579344191
2098,2.61361481285024
8,8.64932348607993
831,15.6000095769602
1912,30.
2,1, 1,21, 0, 3, 7.00, 8.00,WinterDesignDay
2097,16.3733544832623
2098,2.61361481285024
8,8.64932348607993
831,15.6000093721577
1912,30.
2,1, 1,21, 0, 3, 8.00, 9.00,WinterDesignDay
2097,16.3731546504225
2098,2.61361481285024
8,8.64932348607993
831,15.6000091948221
1912,30.
2,1, 1,21, 0, 3, 9.00,10.00,WinterDesignDay
2097,16.3729582630224
2098,2.61361481285024
8,8.64932348607993
831,15.6000090406346
1912,30.
2,1, 1,21, 0, 3,10.00,11.00,WinterDesignDay
2097,16.3727652895631
2098,2.61361481285024
8,8.64932348607993
831,15.6000089058361
1912,30.
2,1, 1,21, 0, 3,11.00,12.00,WinterDesignDay
2097,16.3725757687299
2098,2.61361481285024
8,8.64932348607993
831,15.6000087872212
1912,30.
2,1, 1,21, 0, 3,12.00,13.00,WinterDesignDay
2097,16.3723897337171
2098,2.61361481285024
8,8.64932348607993
831,15.6000086821031
1912,30.
2,1, 1,21, 0, 3,13.00,14.00,WinterDesignDay
2097,16.37220718525
2098,2.61361481285024
8,8.64932348607993
831,15.6000085882353
1912,30.
2,1, 1,21, 0, 3,14.00,15.00,WinterDesignDay
2097,16.3720281551041
2098,2.61361481285024
8,8.64932348607993
831,15.6000085037918
1912,30.
2,1, 1,21, 0, 3,15.00,16.00,WinterDesignDay
2097,16.3718526575742
2098,2.61361481285024
8,8.64932348607993
831,15.6000084272773
1912,30.
2,1, 1,21, 0, 3,16.00,17.00,WinterDesignDay
2097,14.7400492725174
2098,0.0
8,8.64932348607993
831,15.5100678918852
1912,30.
2,1, 1,21, 0, 3,17.00,18.00,WinterDesignDay
2097,14.6925386813872
2098,0.0
8,8.64932348607993
831,15.3730956534367
1912,30.
2,1, 1,21, 0, 3,18.00,19.00,WinterDesignDay
2097,14.6187188536454
2098,0.0
8,8.64932348607993
831,15.2326828126683
1912,30.
2,1, 1,21, 0, 3,19.00,20.00,WinterDesignDay
2097,14.5416031217306
2098,0.0
8,8.64932348607993
831,15.1071679604163
1912,30.
2,1, 1,21, 0, 3,20.00,21.00,WinterDesignDay
2097,20.2164264452792
2098,2.61361481285024
8,8.64932348607993
831,15.5479370649569
1912,30.
2,1, 1,21, 0, 3,21.00,22.00,WinterDesignDay
2097,14.3117457979566
2098,2.61361481285024
8,8.64932348607993
831,15.5945617036659
1912,30.
2,1, 1,21, 0, 3,22.00,23.00,WinterDesignDay
2097,16.8247498754421
2098,2.61361481285024
8,8.64932348607993
831,15.5994328659633
1912,30.
2,1, 1,21, 0, 3,23.00,24.00,WinterDesignDay
2097,16.4266044429926
2098,2.61361481285024
8,8.64932348607993
831,15.5999530542656
1912,30.
2,1, 1,21, 0, 3,24.00,25.00,WinterDesignDay
2097,16.383588070886
2098,2.61361481285024
8,8.64932348607993
831,15.6000087088671
1912,30.
2,1, 1,21, 0, 3,25.00,26.00,WinterDesignDay
2097,16.3787253905111
2098,2.61361481285024
8,8.64932348607993
831,15.6000162686464
1912,30.
2,1, 1,21, 0, 3,26.00,27.00,WinterDesignDay
2097,16.3778107064748
2098,2.61361481285024
8,8.64932348607993
831,15.6000171533606
1912,30.
2,1, 1,21, 0, 3,27.00,28.00,WinterDesignDay
2097,16.3774153028437
2098,2.61361481285024
8,8.64932348607993
831,15.6000167718382
1912,30.
2,1, 1,21, 0, 3,28.00,29.00,WinterDesignDay
2097,16.3770943430738
2098,2.61361481285024
8,8.64932348607993
831,15.6000160459323
1912,30.
2,1, 1,21, 0, 3,29.00,30.00,WinterDesignDay
2097,16.3767924759852
2098,2.61361481285024
8,8.64932348607993
831,15.600015228125
1912,30.
2,1, 1,21, 0, 3,30.00,31.00,WinterDesignDay
2097,16.3764956697512
2098,2.61361481285024
8,8.64932348607993
831,15.6000144104524
1912,30.
2,1, 1,21, 0, 3,31.00,32.00,WinterDesignDay
2097,16.3762244754222
2098,2.61361481285024
8,8.64932348607993
831,15.6000136328473
1912,30.
2,1, 1,21, 0, 3,32.00,33.00,WinterDesignDay
2097,16.3759639820026
2098,2.61361481285024
8,8.64932348607993
831,15.6000129154511
1912,30.
2,1, 1,21, 0, 3,33.00,34.00,WinterDesignDay
2097,16.3757061607041
2098,2.61361481285024
8,8.64932348607993
831,15.6000122687185
1912,30.
2,1, 1,21, 0, 3,34.00,35.00,WinterDesignDay
2097,16.3754471366381
2098,2.61361481285024
8,8.64932348607993
831,15.6000116962561
1912,30.
2,1, 1,21, 0, 3,35.00,36.00,WinterDesignDay
2097,16.3751956862369
2098,2.61361481285024
8,8.64932348607993
831,15.6000111965363
1912,30.
2,1, 1,21, 0, 3,36.00,37.00,WinterDesignDay
2097,16.3749413745221
2098,2.61361481285024
8,8.64932348607993
831,15.6000107642981
1912,30.
2,1, 1,21, 0, 3,37.00,38.00,WinterDesignDay
2097,16.3747271232289
2098,2.61361481285024
8,8.64932348607993
831,15.6000103927122
1912,30.
2,1, 1,21, 0, 3,38.00,39.00,WinterDesignDay
2097,16.3745103230512
2098,2.61361481285024
8,8.64932348607993
831,15.6000100732061
1912,30.
2,1, 1,21, 0, 3,39.00,40.00,WinterDesignDay
2097,16.3742864248058
2098,2.61361481285024
8,8.64932348607993
831,15.6000097980572
1912,30.
2,1, 1,21, 0, 3,40.00,41.00,WinterDesignDay
2097,16.3740637140242
2098,2.61361481285024
8,8.64932348607993
831,15.6000095608355
1912,30.
2,1, 1,21, 0, 3,41.00,42.00,WinterDesignDay
2097,16.37384373135
2098,2.61361481285024
8,8.64932348607993
831,15.6000093560056
1912,30.
2,1, 1,21, 0, 3,42.00,43.00,WinterDesignDay
2097,16.3736266679993
2098,2.61361481285024
8,8.64932348607993
831,15.6000091786754
1912,30.
2,1, 1,21, 0, 3,43.00,44.00,WinterDesignDay
2097,16.3734175755385
2098,2.61361481285024
8,8.64932348607993
831,15.6000090245237
1912,30.
2,1, 1,21, 0, 3,44.00,45.00,WinterDesignDay
2097,16.3732142511596
2098,2.61361481285024
8,8.64932348607993
831,15.6000088897836
1912,30.
2,1, 1,21, 0, 3,45.00,46.00,WinterDesignDay
2097,16.3730148672044
2098,2.61361481285024
8,8.64932348607993
831,15.6000087712475
1912,30.
2,1, 1,21, 0, 3,46.00,47.00,WinterDesignDay
2097,16.3728190357319
2098,2.61361481285024
8,8.64932348607993
831,15.600008666227
1912,30.
2,1, 1,21, 0, 3,47.00,48.00,WinterDesignDay
2097,16.3726266558314
2098,2.61361481285024
8,8.64932348607993
831,15.6000085724934
1912,30.
2,1, 1,21, 0, 3,48.00,49.00,WinterDesignDay
2097,16.3724376915481
2098,2.61361481285024
8,8.64932348607993
831,15.6000084882107
1912,30.
2,1, 1,21, 0, 3,49.00,50.00,WinterDesignDay
2097,16.3722545069133
2098,2.61361481285024
8,8.64932348607993
831,15.6000084118661
1912,30.
2,1, 1,21, 0, 3,50.00,51.00,WinterDesignDay
2097,14.7401829730546
2098,0.0
8,8.64932348607993
831,15.5100229513498
1912,30.
2,1, 1,21, 0, 3,51.00,52.00,WinterDesignDay
2097,14.6926710712501
2098,0.0
8,8.64932348607993
831,15.3729848925344
1912,30.
2,1, 1,21, 0, 3,52.00,53.00,WinterDesignDay
2097,14.6188536566736
2098,0.0
8,8.64932348607993
831,15.2325083600358
1912,30.
2,1, 1,21, 0, 3,53.00,54.00,WinterDesignDay
2097,14.5417405076308
2098,0.0
8,8.64932348607993
831,15.1069664115467
1912,30.
2,1, 1,21, 0, 3,54.00,55.00,WinterDesignDay
2097,20.2176726122017
2098,2.61361481285024
8,8.64932348607993
831,15.5479156861137
1912,30.
2,1, 1,21, 0, 3,55.00,56.00,WinterDesignDay
2097,14.3108687704347
2098,2.61361481285024
8,8.64932348607993
831,15.5945594209348
1912,30.
2,1, 1,21, 0, 3,56.00,57.00,WinterDesignDay
2097,16.8252486623503
2098,2.61361481285024
8,8.64932348607993
831,15.5994326046878
1912,30.
2,1, 1,21, 0, 3,57.00,58.00,WinterDesignDay
2097,16.427361509216
2098,2.61361481285024
8,8.64932348607993
831,15.5999530189768
1912,30.
2,1, 1,21, 0, 3,58.00,59.00,WinterDesignDay
2097,16.3847110116361
2098,2.61361481285024
8,8.64932348607993
831,15.6000086944715
1912,30.
2,1, 1,21, 0, 3,59.00,60.00,WinterDesignDay
2097,16.3805547392672
2098,2.61361481285024
8,8.64932348607993
831,15.6000162624731
1912,30.
2,1, 1,21, 0, 4, 0.00, 1.00,WinterDesignDay
2097,16.3804852503041
2098,2.61361481285024
8,8.64932348607993
831,15.6000171531846
1912,30.
2,1, 1,21, 0, 4, 1.00, 2.00,WinterDesignDay
2097,16.3802934414846
2098,2.61361481285024
8,8.64932348607993
831,15.6000167728209
1912,30.
2,1, 1,21, 0, 4, 2.00, 3.00,WinterDesignDay
2097,16.37990993358
2098,2.61361481285024
8,8.64932348607993
831,15.6000160459075
1912,30.
2,1, 1,21, 0, 4, 3.00, 4.00,WinterDesignDay
2097,16.3795177936571
2098,2.61361481285024
8,8.64932348607993
831,15.6000152265458
1912,30.
2,1, 1,21, 0, 4, 4.00, 5.00,WinterDesignDay
2097,16.3791190674394
2098,2.61361481285024
8,8.64932348607993
831,15.600014407195
1912,30.
2,1, 1,21, 0, 4, 5.00, 6.00,WinterDesignDay
2097,16.3787130836392
2098,2.61361481285024
8,8.64932348607993
831,15.6000136277569
1912,30.
2,1, 1,21, 0, 4, 6.00, 7.00,WinterDesignDay
2097,16.3783001419309
2098,2.61361481285024
8,8.64932348607993
831,15.6000129085238
1912,30.
2,1, 1,21, 0, 4, 7.00, 8.00,WinterDesignDay
2097,16.3779543086755
2098,2.61361481285024
8,8.64932348607993
831,15.6000122603958
1912,30.
2,1, 1,21, 0, 4, 8.00, 9.00,WinterDesignDay
2097,16.3776349017668
2098,2.61361481285024
8,8.64932348607993
831,15.6000116868223
1912,30.
2,1, 1,21, 0, 4, 9.00,10.00,WinterDesignDay
2097,16.3773186604937
2098,2.61361481285024
8,8.64932348607993
831,15.6000111861475
1912,30.
2,1, 1,21, 0, 4,10.00,11.00,WinterDesignDay
2097,16.3770008032628
2098,2.61361481285024
8,8.64932348607993
831,15.6000107532393
1912,30.
2,1, 1,21, 0, 4,11.00,12.00,WinterDesignDay
2097,16.3766921710934
2098,2.61361481285024
8,8.64932348607993
831,15.6000103811658
1912,30.
2,1, 1,21, 0, 4,12.00,13.00,WinterDesignDay
2097,16.3764195203708
2098,2.61361481285024
8,8.64932348607993
831,15.6000100623125
1912,30.
2,1, 1,21, 0, 4,13.00,14.00,WinterDesignDay
2097,16.3761581852284
2098,2.61361481285024
8,8.64932348607993
831,15.6000097882137
1912,30.
2,1, 1,21, 0, 4,14.00,15.00,WinterDesignDay
2097,16.3758970941555
2098,2.61361481285024
8,8.64932348607993
831,15.6000095516557
1912,30.
2,1, 1,21, 0, 4,15.00,16.00,WinterDesignDay
2097,16.3756384037844
2098,2.61361481285024
8,8.64932348607993
831,15.6000093469473
1912,30.
2,1, 1,21, 0, 4,16.00,17.00,WinterDesignDay
2097,16.3753825775294
2098,2.61361481285024
8,8.64932348607993
831,15.6000091693563
1912,30.
2,1, 1,21, 0, 4,17.00,18.00,WinterDesignDay
2097,16.3751294749635
2098,2.61361481285024
8,8.64932348607993
831,15.6000090147669
1912,30.
2,1, 1,21, 0, 4,18.00,19.00,WinterDesignDay
2097,16.3748790017321
2098,2.61361481285024
8,8.64932348607993
831,15.6000088795602
1912,30.
2,1, 1,21, 0, 4,19.00,20.00,WinterDesignDay
2097,16.374642855145
2098,2.61361481285024
8,8.64932348607993
831,15.6000087606289
1912,30.
2,1, 1,21, 0, 4,20.00,21.00,WinterDesignDay
2097,16.3744158267031
2098,2.61361481285024
8,8.64932348607993
831,15.6000086552914
1912,30.
2,1, 1,21, 0, 4,21.00,22.00,WinterDesignDay
2097,16.3741935192176
2098,2.61361481285024
8,8.64932348607993
831,15.6000085613098
1912,30.
2,1, 1,21, 0, 4,22.00,23.00,WinterDesignDay
2097,16.3739749345872
2098,2.61361481285024
8,8.64932348607993
831,15.6000084768397
1912,30.
2,1, 1,21, 0, 4,23.00,24.00,WinterDesignDay
2097,16.3737597336829
2098,2.61361481285024
8,8.64932348607993
831,15.6000084003669
1912,30.
2,1, 1,21, 0, 4,24.00,25.00,WinterDesignDay
2097,14.7400598074078
2098,0.0
8,8.64932348607993
831,15.5098554914278
1912,30.
2,1, 1,21, 0, 4,25.00,26.00,WinterDesignDay
2097,14.6925325475589
2098,0.0
8,8.64932348607993
831,15.3725724722972
1912,30.
2,1, 1,21, 0, 4,26.00,27.00,WinterDesignDay
2097,14.6186962634524
2098,0.0
8,8.64932348607993
831,15.2318590317219
1912,30.
2,1, 1,21, 0, 4,27.00,28.00,WinterDesignDay
2097,14.5415642162062
2098,0.0
8,8.64932348607993
831,15.1061212254199
1912,30.
2,1, 1,21, 0, 4,28.00,29.00,WinterDesignDay
2097,20.2255513423268
2098,2.61361481285024
8,8.64932348607993
831,15.5478286528824
1912,30.
2,1, 1,21, 0, 4,29.00,30.00,WinterDesignDay
2097,14.3081507791483
2098,2.61361481285024
8,8.64932348607993
831,15.5945505410659
1912,30.
2,1, 1,21, 0, 4,30.00,31.00,WinterDesignDay
2097,16.8260579289557
2098,2.61361481285024
8,8.64932348607993
831,15.599431639713
1912,30.
2,1, 1,21, 0, 4,31.00,32.00,WinterDesignDay
2097,16.4266918191108
2098,2.61361481285024
8,8.64932348607993
831,15.5999528989345
1912,30.
2,1, 1,21, 0, 4,32.00,33.00,WinterDesignDay
2097,16.3832423340494
2098,2.61361481285024
8,8.64932348607993
831,15.6000086515448
1912,30.
2,1, 1,21, 0, 4,33.00,34.00,WinterDesignDay
2097,16.3783886099251
2098,2.61361481285024
8,8.64932348607993
831,15.6000162278321
1912,30.
2,1, 1,21, 0, 4,34.00,35.00,WinterDesignDay