Program Version,EnergyPlus-Windows-64 8.0.0.008, YMD=2018.11.12 23:10
1,5,Environment Title[],Latitude[deg],Longitude[deg],Time Zone[],Elevation[m]
2,6,Day of Simulation[],Month[],Day of Month[],DST Indicator[1=yes 0=no],Hour[],StartMinute[],EndMinute[],DayType
3,3,Cumulative Day of Simulation[],Month[],Day of Month[],DST Indicator[1=yes 0=no],DayType  ! When Daily Meters Requested
4,2,Cumulative Days of Simulation[],Month[]  ! When Monthly Meters Requested
5,1,Cumulative Days of Simulation[] ! When Run Period Meters Requested
59,1,Electricity:Facility [J] !Hourly
1757,1,ElectricityNet:Facility [J] !Hourly
702,1,Gas:Facility [J] !Hourly
89,1,InteriorLights:Electricity [J] !Hourly
444,1,InteriorEquipment:Electricity [J] !Hourly
End of Data Dictionary
1,MIAMI INTL AP ANN HTG 99.6% CONDNS DB,  25.82, -80.30,  -5.00,  11.00
2,1, 1,21, 0, 1, 0.00,60.00,WinterDesignDay
59,140257205.084578
89,0.0
444,0.0
702,4713590.80705582
1757,140257205.084578
2,1, 1,21, 0, 2, 0.00,60.00,WinterDesignDay
59,140267985.513084
89,0.0
444,0.0
702,4713759.61316406
1757,140267985.513084
2,1, 1,21, 0, 3, 0.00,60.00,WinterDesignDay
59,143578102.176742
89,0.0
444,0.0
702,4655535.02437425
1757,143578102.176742
2,1, 1,21, 0, 4, 0.00,60.00,WinterDesignDay
59,142007688.166831
89,0.0
444,0.0
702,4713965.89939556
1757,142007688.166831
2,1, 1,21, 0, 5, 0.00,60.00,WinterDesignDay
59,143371764.115546
89,0.0
444,0.0
702,4714078.71003958
1757,143371764.115546
2,1, 1,21, 0, 6, 0.00,60.00,WinterDesignDay
59,143521134.265453
89,0.0
444,0.0
702,4655675.54177346
1757,143521134.265453
2,1, 1,21, 0, 7, 0.00,60.00,WinterDesignDay
59,205867926.87067
89,0.0
444,0.0
702,4597200.
1757,205867926.87067
2,1, 1,21, 0, 8, 0.00,60.00,WinterDesignDay
59,183395042.207196
89,0.0
444,0.0
702,4597200.
1757,183395042.207196
2,1, 1,21, 0, 9, 0.00,60.00,WinterDesignDay
59,177146203.319139
89,0.0
444,0.0
702,4597200.
1757,177146203.319139
2,1, 1,21, 0,10, 0.00,60.00,WinterDesignDay
59,176988810.170957
89,0.0
444,0.0
702,4597200.
1757,176988810.170957
2,1, 1,21, 0,11, 0.00,60.00,WinterDesignDay
59,177271174.144356
89,0.0
444,0.0
702,4597200.
1757,177271174.144356
2,1, 1,21, 0,12, 0.00,60.00,WinterDesignDay
59,177167328.495061
89,0.0
444,0.0
702,4597200.
1757,177167328.495061
2,1, 1,21, 0,13, 0.00,60.00,WinterDesignDay
59,177479289.524971
89,0.0
444,0.0
702,4597200.
1757,177479289.524971
2,1, 1,21, 0,14, 0.00,60.00,WinterDesignDay
59,177664964.169963
89,0.0
444,0.0
702,8720772.40679602
1757,177664964.169963
2,1, 1,21, 0,15, 0.00,60.00,WinterDesignDay
59,177999844.533486
89,0.0
444,0.0
702,4597200.
1757,177999844.533486
2,1, 1,21, 0,16, 0.00,60.00,WinterDesignDay
59,178188075.874177
89,0.0
444,0.0
702,8654127.77514216
1757,178188075.874177
2,1, 1,21, 0,17, 0.00,60.00,WinterDesignDay
59,178208033.282747
89,0.0
444,0.0
702,4597200.
1757,178208033.282747
2,1, 1,21, 0,18, 0.00,60.00,WinterDesignDay
59,183067934.837003
89,0.0
444,0.0
702,4597200.
1757,183067934.837003
2,1, 1,21, 0,19, 0.00,60.00,WinterDesignDay
59,149577776.720393
89,0.0
444,0.0
702,4708085.66961994
1757,149577776.720393
2,1, 1,21, 0,20, 0.00,60.00,WinterDesignDay
59,150215377.580954
89,0.0
444,0.0
702,4712577.04161218
1757,150215377.580954
2,1, 1,21, 0,21, 0.00,60.00,WinterDesignDay
59,153702278.260821
89,0.0
444,0.0
702,4655034.87812277
1757,153702278.260821
2,1, 1,21, 0,22, 0.00,60.00,WinterDesignDay
59,152224059.415126
89,0.0
444,0.0
702,4713078.88038782
1757,152224059.415126
2,1, 1,21, 0,23, 0.00,60.00,WinterDesignDay
59,153642904.535539
89,0.0
444,0.0
702,4713314.64072326
1757,153642904.53554
2,1, 1,21, 0,24, 0.00,60.00,WinterDesignDay
59,153856294.572325
89,0.0
444,0.0
702,4655334.80518736
1757,153856294.572325
1,MIAMI INTL AP ANN CLG .4% CONDNS DB=>MWB,  25.82, -80.30,  -5.00,  11.00
2,1, 7,21, 0, 1, 0.00,60.00,SummerDesignDay
59,561862360.94353
89,158309273.450227
444,224813060.552967
702,4597200.
1757,561862360.94353
2,1, 7,21, 0, 2, 0.00,60.00,SummerDesignDay
59,562037678.610743
89,158309273.450227
444,224813060.552967
702,4597200.
1757,562037678.610743
2,1, 7,21, 0, 3, 0.00,60.00,SummerDesignDay
59,564627243.512394
89,158309273.450227
444,224813060.552967
702,4597200.
1757,564627243.512395
2,1, 7,21, 0, 4, 0.00,60.00,SummerDesignDay
59,566533209.737341
89,158309273.450227
444,224813060.552967
702,4597200.
1757,566533209.737341
2,1, 7,21, 0, 5, 0.00,60.00,SummerDesignDay
59,568276570.822747
89,158309273.450227
444,224813060.552967
702,4597200.
1757,568276570.822747
2,1, 7,21, 0, 6, 0.00,60.00,SummerDesignDay
59,610846860.963856
89,157961488.405541
444,224813060.552967
702,4597200.
1757,610846860.963856
2,1, 7,21, 0, 7, 0.00,60.00,SummerDesignDay
59,662011014.186572
89,133148731.06777
444,224813060.552967
702,4597200.
1757,662011014.186572
2,1, 7,21, 0, 8, 0.00,60.00,SummerDesignDay
59,717365808.438264
89,125219216.098469
444,224813060.552967
702,4597200.
1757,717365808.438264
2,1, 7,21, 0, 9, 0.00,60.00,SummerDesignDay
59,723827932.894687
89,124547812.705665
444,224813060.552967
702,4597200.
1757,723827932.894687
2,1, 7,21, 0,10, 0.00,60.00,SummerDesignDay
59,743143847.110099
89,124547812.705665
444,224813060.552967
702,4597200.
1757,743143847.110099
2,1, 7,21, 0,11, 0.00,60.00,SummerDesignDay
59,759574444.104121
89,124547812.705665
444,224813060.552967
702,8867858.15232364
1757,759574444.104121
2,1, 7,21, 0,12, 0.00,60.00,SummerDesignDay
59,767581947.589347
89,124547812.705665
444,224813060.552967
702,13303000.4121199
1757,767581947.589347
2,1, 7,21, 0,13, 0.00,60.00,SummerDesignDay
59,771427833.066814
89,124547812.705665
444,224813060.552967
702,17977611.6103747
1757,771427833.066814
2,1, 7,21, 0,14, 0.00,60.00,SummerDesignDay
59,784115588.391704
89,124547812.705665
444,224813060.552967
702,17880185.5318174
1757,784115588.391704
2,1, 7,21, 0,15, 0.00,60.00,SummerDesignDay
59,794601584.818438
89,124547812.705665
444,224813060.552967
702,9398720.83311645
1757,794601584.818438
2,1, 7,21, 0,16, 0.00,60.00,SummerDesignDay
59,796304996.108364
89,124547812.705665
444,224813060.552967
702,12444000.5547777
1757,796304996.108364
2,1, 7,21, 0,17, 0.00,60.00,SummerDesignDay
59,791633223.28615
89,124547812.705665
444,224813060.552967
702,13241215.3825242
1757,791633223.28615
2,1, 7,21, 0,18, 0.00,60.00,SummerDesignDay
59,772544774.427491
89,125375795.938401
444,224813060.552967
702,8741928.82919056
1757,772544774.427491
2,1, 7,21, 0,19, 0.00,60.00,SummerDesignDay
59,743051389.77142
89,136595932.326079
444,224813060.552967
702,8695371.50166701
1757,743051389.771419
2,1, 7,21, 0,20, 0.00,60.00,SummerDesignDay
59,748348231.281558
89,158309273.450227
444,224813060.552967
702,4597200.
1757,748348231.281558
2,1, 7,21, 0,21, 0.00,60.00,SummerDesignDay
59,734125128.196791
89,158309273.450227
444,224813060.552967
702,4597200.
1757,734125128.196791
2,1, 7,21, 0,22, 0.00,60.00,SummerDesignDay
59,720618780.122461
89,158309273.450227
444,224813060.552967
702,4597200.
1757,720618780.122461
2,1, 7,21, 0,23, 0.00,60.00,SummerDesignDay
59,522803673.042293
89,158309273.450227
444,224813060.552967
702,4597200.
1757,522803673.042293
2,1, 7,21, 0,24, 0.00,60.00,SummerDesignDay
59,565907149.404304
89,158309273.450227
444,224813060.552967
702,4597200.
1757,565907149.404304
1,Miami Intl Ap FL USA TMY3 WMO#=722020,  25.82, -80.30,  -5.00,  11.00
2,1, 6,20, 1, 1, 0.00,60.00,Sunday         
59,61036246.3129311
89,7915463.67251136
444,33399901.5013581
702,4597200.
1757,61036246.3129311
2,1, 6,20, 1, 2, 0.00,60.00,Sunday         
59,61036294.1179892
89,7915463.67251136
444,33399901.5013581
702,4597200.
1757,61036294.1179892
2,1, 6,20, 1, 3, 0.00,60.00,Sunday         
59,61036294.1179892
89,7915463.67251136
444,33399901.5013581
702,4597200.
1757,61036294.1179892
2,1, 6,20, 1, 4, 0.00,60.00,Sunday         
59,61036294.1179892
89,7915463.67251136
444,33399901.5013581
702,4597200.
1757,61036294.1179892
2,1, 6,20, 1, 5, 0.00,60.00,Sunday         
59,61036294.1179892
89,7915463.67251136
444,33399901.5013581
702,4597200.
1757,61036294.1179892
2,1, 6,20, 1, 6, 0.00,60.00,Sunday         
59,65208953.895114
89,6765365.41557847
444,41385398.9087341
702,4597200.
1757,65208953.895114
2,1, 6,20, 1, 7, 0.00,60.00,Sunday         
59,228648043.513829
89,5856629.61018971
444,41385398.9087341
702,4597200.
1757,228648043.513829
2,1, 6,20, 1, 8, 0.00,60.00,Sunday         
59,179553702.735849
89,5472944.29535722
444,41385398.9087341
702,4597200.
1757,179553702.735849
2,1, 6,20, 1, 9, 0.00,60.00,Sunday         
59,230904045.796888
89,5374497.91113249
444,41385398.9087341
702,4597200.
1757,230904045.796888
2,1, 6,20, 1,10, 0.00,60.00,Sunday         
59,231041444.32262
89,5370038.36600499
444,41385398.9087341
702,4597200.
1757,231041444.32262
2,1, 6,20, 1,11, 0.00,60.00,Sunday         
59,241330764.072818
89,5370038.36600499
444,41385398.9087341
702,4597200.
1757,241330764.072818
2,1, 6,20, 1,12, 0.00,60.00,Sunday         
59,262246507.316615
89,5370038.36600499
444,41385398.9087341
702,4597200.
1757,262246507.316616
2,1, 6,20, 1,13, 0.00,60.00,Sunday         
59,252653451.332756
89,5370038.36600499
444,41385398.9087341
702,4597200.
1757,252653451.332756
2,1, 6,20, 1,14, 0.00,60.00,Sunday         
59,246758364.195983
89,5370038.36600499
444,41385398.9087341
702,4597200.
1757,246758364.195984
2,1, 6,20, 1,15, 0.00,60.00,Sunday         
59,223418773.238249
89,5370038.36600499
444,41385398.9087341
702,4597200.
1757,223418773.238249
2,1, 6,20, 1,16, 0.00,60.00,Sunday         
59,237663515.354732
89,5370038.36600499
444,41385398.9087341
702,4597200.
1757,237663515.354732
2,1, 6,20, 1,17, 0.00,60.00,Sunday         
59,193185022.506402
89,5397606.79683151
444,41385398.9087341
702,4597200.
1757,193185022.506402
2,1, 6,20, 1,18, 0.00,60.00,Sunday         
59,196594704.211495
89,6476807.42447156
444,33399901.5013581
702,4597200.
1757,196594704.211495
2,1, 6,20, 1,19, 0.00,60.00,Sunday         
59,190477032.067472
89,7451718.63056483
444,33399901.5013581
702,4597200.
1757,190477032.067472
2,1, 6,20, 1,20, 0.00,60.00,Sunday         
59,206847248.544001
89,7915463.67251136
444,33399901.5013581
702,4597200.
1757,206847248.544001
2,1, 6,20, 1,21, 0.00,60.00,Sunday         
59,198386588.905161
89,7915463.67251136
444,33399901.5013581
702,4597200.
1757,198386588.905161
2,1, 6,20, 1,22, 0.00,60.00,Sunday         
59,198343528.864458
89,7915463.67251136
444,33399901.5013581
702,4597200.
1757,198343528.864458
2,1, 6,20, 1,23, 0.00,60.00,Sunday         
59,94399254.891782
89,7915463.67251136
444,33399901.5013581
702,4597200.
1757,94399254.891782
2,1, 6,20, 1,24, 0.00,60.00,Sunday         
59,61036294.1179892
89,7915463.67251136
444,33399901.5013581
702,4597200.
1757,61036294.1179892
2,2, 6,21, 1, 1, 0.00,60.00,Monday         
59,72340000.9157607
89,7915463.67251136
444,44533202.0018108
702,4597200.
1757,72340000.9157607
2,2, 6,21, 1, 2, 0.00,60.00,Monday         
59,72340000.9157607
89,7915463.67251136
444,44533202.0018108
702,4597200.
1757,72340000.9157607
2,2, 6,21, 1, 3, 0.00,60.00,Monday         
59,72340000.9157607
89,7915463.67251136
444,44533202.0018108
702,4597200.
1757,72340000.9157607
2,2, 6,21, 1, 4, 0.00,60.00,Monday         
59,72340000.9157607
89,7915463.67251136
444,44533202.0018108
702,4597200.
1757,72340000.9157607
2,2, 6,21, 1, 5, 0.00,60.00,Monday         
59,80259352.3606098
89,15830927.3450227
444,44533202.0018108
702,4597200.
1757,80259352.3606098
2,2, 6,21, 1, 6, 0.00,60.00,Monday         
59,294968341.479377
89,13562140.0815457
444,55180531.8783121
702,4597200.
1757,294968341.479378
2,2, 6,21, 1, 7, 0.00,60.00,Monday         
59,323228239.812787
89,35508292.6714929
444,95796493.4167736
702,4597200.
1757,323228239.812787
2,2, 6,21, 1, 8, 0.00,60.00,Monday         
59,515508674.796575
89,98530633.8743563
444,204227663.75917
702,4597200.
1757,515508674.796575
2,2, 6,21, 1, 9, 0.00,60.00,Monday         
59,491740340.312608
89,96660690.5880896
444,174055806.616312
702,4597200.
1757,491740340.312608
2,2, 6,21, 1,10, 0.00,60.00,Monday         
59,490858365.534903
89,96660690.5880896
444,167093070.352576
702,4597200.
1757,490858365.534903
2,2, 6,21, 1,11, 0.00,60.00,Monday         
59,520875561.248285
89,96660690.5880896
444,174055806.616312
702,4597200.
1757,520875561.248285
2,2, 6,21, 1,12, 0.00,60.00,Monday         
59,533105152.68625
89,96660690.5880896
444,177667514.306075
702,13533247.1891424
1757,533105152.68625
2,2, 6,21, 1,13, 0.00,60.00,Monday         
59,561499815.780782
89,96660690.5880896
444,179858086.836092
702,13991271.1779974
1757,561499815.780782
2,2, 6,21, 1,14, 0.00,60.00,Monday         
59,542123845.440148
89,96660690.5880896
444,167093070.352576
702,12605222.7790181
1757,542123845.440148
2,2, 6,21, 1,15, 0.00,60.00,Monday         
59,525717515.22406
89,96946677.6787933
444,167093070.352576
702,13027561.8629095
1757,525717515.22406
2,2, 6,21, 1,16, 0.00,60.00,Monday         
59,512733710.75166
89,97006885.4873624
444,177537174.74818
702,13252578.1590347
1757,512733710.75166
2,2, 6,21, 1,17, 0.00,60.00,Monday         
59,396969942.51465
89,55446390.6762731
444,140923939.573165
702,8744091.91262989
1757,396969942.51465
2,2, 6,21, 1,18, 0.00,60.00,Monday         
59,298274851.666194
89,33348024.814977
444,69106004.4057847
702,5939400.54480923
1757,298274851.666194
2,2, 6,21, 1,19, 0.00,60.00,Monday         
59,288934649.065584
89,37162717.8498216
444,59822356.0541363
702,7333995.15479862
1757,288934649.065584
2,2, 6,21, 1,20, 0.00,60.00,Monday         
59,293839499.960556
89,27263139.374404
444,59822356.0541363
702,4597200.
1757,293839499.960556
2,2, 6,21, 1,21, 0.00,60.00,Monday         
59,292384092.904578
89,27302827.8427063
444,55180531.8783121
702,4597200.
1757,292384092.904578
2,2, 6,21, 1,22, 0.00,60.00,Monday         
59,206356920.097845
89,13651413.9213531
444,55180531.8783121
702,4597200.
1757,206356920.097845
2,2, 6,21, 1,23, 0.00,60.00,Monday         
59,137092168.25335
89,6825706.96067657
444,55180531.8783121
702,4597200.
1757,137092168.25335
2,2, 6,21, 1,24, 0.00,60.00,Monday         
59,72339991.872542
89,7915463.67251136
444,44533202.0018108
702,4597200.
1757,72339991.872542
2,3, 6,22, 1, 1, 0.00,60.00,Tuesday        
59,72340000.9157607
89,7915463.67251136
444,44533202.0018108
702,4597200.
1757,72340000.9157607
2,3, 6,22, 1, 2, 0.00,60.00,Tuesday        
59,72340000.9157607
89,7915463.67251136
444,44533202.0018108
702,4597200.
1757,72340000.9157607
2,3, 6,22, 1, 3, 0.00,60.00,Tuesday        
59,72340000.9157607
89,7915463.67251136
444,44533202.0018108
702,4597200.
1757,72340000.9157607
2,3, 6,22, 1, 4, 0.00,60.00,Tuesday        
59,72340000.9157607
89,7915463.67251136
444,44533202.0018108
702,4597200.
1757,72340000.9157607
2,3, 6,22, 1, 5, 0.00,60.00,Tuesday        
59,80259352.3606098
89,15830927.3450227
444,44533202.0018108
702,4597200.
1757,80259352.3606098
2,3, 6,22, 1, 6, 0.00,60.00,Tuesday        
59,302081669.368771
89,13392006.992601
444,55180531.8783121
702,4597200.
1757,302081669.368771
2,3, 6,22, 1, 7, 0.00,60.00,Tuesday        
59,333790084.114233
89,33659700.4396849
444,95796493.4167736
702,4597200.
1757,333790084.114233
2,3, 6,22, 1, 8, 0.00,60.00,Tuesday        
59,532521640.039383
89,97066556.8123547
444,204227663.75917
702,4597200.
1757,532521640.039383
2,3, 6,22, 1, 9, 0.00,60.00,Tuesday        
59,482909918.803263
89,97112219.5322493
444,174055806.616312
702,4597200.
1757,482909918.803263
2,3, 6,22, 1,10, 0.00,60.00,Tuesday        
59,457985116.065264
89,96791132.283069
444,167093070.352576
702,8872930.96535438
1757,457985116.065264
2,3, 6,22, 1,11, 0.00,60.00,Tuesday        
59,477177030.060304
89,96660690.5880896
444,174055806.616312
702,13314093.7329503
1757,477177030.060304
2,3, 6,22, 1,12, 0.00,60.00,Tuesday        
59,479131433.978231
89,96660690.5880896
444,177667514.306075
702,18000663.142006
1757,479131433.978231
2,3, 6,22, 1,13, 0.00,60.00,Tuesday        
59,499235561.097191
89,96660690.5880896
444,179858086.836092
702,17899860.7410155
1757,499235561.097191
2,3, 6,22, 1,14, 0.00,60.00,Tuesday        
59,507380473.16992
89,96660690.5880896
444,167093070.352576
702,9623715.26947799
1757,507380473.16992
2,3, 6,22, 1,15, 0.00,60.00,Tuesday        
59,533829651.8084
89,96660690.5880896
444,167093070.352576
702,12229925.6180324
1757,533829651.8084
2,3, 6,22, 1,16, 0.00,60.00,Tuesday        
59,562264958.065371
89,96660690.5880896
444,177537174.74818
702,13252086.5038681
1757,562264958.065371
2,3, 6,22, 1,17, 0.00,60.00,Tuesday        
59,478308044.005747
89,53700383.6600499
444,140923939.573165
702,8745010.80267067
1757,478308044.005747
2,3, 6,22, 1,18, 0.00,60.00,Tuesday        
59,358683024.155011
89,32477132.3362987
444,69106004.4057847
702,8697728.76866982
1757,358683024.155011
2,3, 6,22, 1,19, 0.00,60.00,Tuesday        
59,338127716.748317
89,35050052.8743848
444,59822356.0541363
702,4597200.
1757,338127716.748317
2,3, 6,22, 1,20, 0.00,60.00,Tuesday        
59,340455350.317891
89,27134576.2195897
444,59822356.0541363
702,8661656.81155469
1757,340455350.317891
2,3, 6,22, 1,21, 0.00,60.00,Tuesday        
59,336290407.885918
89,27302827.8427063
444,55180531.8783121
702,4597200.
1757,336290407.885918
2,3, 6,22, 1,22, 0.00,60.00,Tuesday        
59,240374753.769657
89,13651413.9213531
444,55180531.8783121
702,4597200.
1757,240374753.769657
2,3, 6,22, 1,23, 0.00,60.00,Tuesday        
59,126066086.221546
89,6825706.96067657
444,55180531.8783121
702,4597200.
1757,126066086.221546
2,3, 6,22, 1,24, 0.00,60.00,Tuesday        
59,72339991.872542
89,7915463.67251136
444,44533202.0018108
702,4597200.
1757,72339991.872542
2,4, 6,23, 1, 1, 0.00,60.00,Wednesday      
59,72340000.9157607
89,7915463.67251136
444,44533202.0018108
702,4597200.
1757,72340000.9157607
2,4, 6,23, 1, 2, 0.00,60.00,Wednesday      
59,72340000.9157607
89,7915463.67251136
444,44533202.0018108
702,4597200.
1757,72340000.9157607
2,4, 6,23, 1, 3, 0.00,60.00,Wednesday      
59,72340000.9157607
89,7915463.67251136
444,44533202.0018108
702,4597200.
1757,72340000.9157607
2,4, 6,23, 1, 4, 0.00,60.00,Wednesday      
59,72340000.9157607
89,7915463.67251136
444,44533202.0018108
702,4597200.
1757,72340000.9157607
2,4, 6,23, 1, 5, 0.00,60.00,Wednesday      
59,80259352.3606098
89,15830927.3450227
444,44533202.0018108
702,4597200.
1757,80259352.3606098
2,4, 6,23, 1, 6, 0.00,60.00,Wednesday      
59,317071184.070601
89,13390639.8006321
444,55180531.8783121
702,4597200.
1757,317071184.070601
2,4, 6,23, 1, 7, 0.00,60.00,Wednesday      
59,357129690.024931
89,33889613.3776812
444,95796493.4167736
702,4597200.
1757,357129690.024931
2,4, 6,23, 1, 8, 0.00,60.00,Wednesday      
59,546974320.603821
89,96960945.1459779
444,204227663.75917
702,4597200.
1757,546974320.603821
2,4, 6,23, 1, 9, 0.00,60.00,Wednesday      
59,536670464.412045
89,96660690.5880896
444,174055806.616312
702,4597200.
1757,536670464.412045
2,4, 6,23, 1,10, 0.00,60.00,Wednesday      
59,547489937.448471
89,96660690.5880896
444,167093070.352576
702,4597200.
1757,547489937.448471
2,4, 6,23, 1,11, 0.00,60.00,Wednesday      
59,543084855.874518
89,96660690.5880896
444,174055806.616312
702,17671436.4814737
1757,543084855.874518
2,4, 6,23, 1,12, 0.00,60.00,Wednesday      
59,548021436.473068
89,96660690.5880896
444,177667514.306075
702,17997935.7718004
1757,548021436.473068
2,4, 6,23, 1,13, 0.00,60.00,Wednesday      
59,566888223.564628
89,96660690.5880896
444,179858086.836092
702,14050987.3093726
1757,566888223.564627
2,4, 6,23, 1,14, 0.00,60.00,Wednesday      
59,530711488.080424
89,98416219.5521195
444,167093070.352576
702,12545036.6602333
1757,530711488.080424
2,4, 6,23, 1,15, 0.00,60.00,Wednesday      
59,499627611.804445
89,97000157.9914164
444,167093070.352576
702,13027297.2305698
1757,499627611.804445
2,4, 6,23, 1,16, 0.00,60.00,Wednesday      
59,527722670.539179
89,96660690.5880896
444,177537174.74818
702,13250232.0771941
1757,527722670.539179
2,4, 6,23, 1,17, 0.00,60.00,Wednesday      
59,439089076.421079
89,53733832.4425883
444,140923939.573165
702,8744180.59887969
1757,439089076.421079
2,4, 6,23, 1,18, 0.00,60.00,Wednesday      
59,342993189.136822
89,32592016.6263353
444,69106004.4057847
702,4597200.
1757,342993189.136822
2,4, 6,23, 1,19, 0.00,60.00,Wednesday      
59,328646202.304336
89,35771509.7493218
444,59822356.0541363
702,8643995.19624808
1757,328646202.304336
2,4, 6,23, 1,20, 0.00,60.00,Wednesday      
59,334946046.807852
89,27200164.7144859
444,59822356.0541363
702,4597200.
1757,334946046.807852
2,4, 6,23, 1,21, 0.00,60.00,Wednesday      
59,329908899.732281
89,27302827.8427063
444,55180531.8783121
702,4597200.
1757,329908899.732281
2,4, 6,23, 1,22, 0.00,60.00,Wednesday      
59,243990447.340628
89,13651413.9213531
444,55180531.8783121
702,4597200.
1757,243990447.340628
2,4, 6,23, 1,23, 0.00,60.00,Wednesday      
59,119747422.703544
89,6825706.96067657
444,55180531.8783121
702,4597200.
1757,119747422.703544
2,4, 6,23, 1,24, 0.00,60.00,Wednesday      
59,72339991.872542
89,7915463.67251136
444,44533202.0018108
702,4597200.
1757,72339991.872542
2,5, 6,24, 1, 1, 0.00,60.00,Thursday       
59,72340000.9157607
89,7915463.67251136
444,44533202.0018108
702,4597200.
1757,72340000.9157607
2,5, 6,24, 1, 2, 0.00,60.00,Thursday       
59,72340000.9157607
89,7915463.67251136
444,44533202.0018108
702,4597200.
1757,72340000.9157607
2,5, 6,24, 1, 3, 0.00,60.00,Thursday       
59,72340000.9157607
89,7915463.67251136
444,44533202.0018108
702,4597200.
1757,72340000.9157607
2,5, 6,24, 1, 4, 0.00,60.00,Thursday       
59,72340000.9157607
89,7915463.67251136
444,44533202.0018108
702,4597200.
1757,72340000.9157607
2,5, 6,24, 1, 5, 0.00,60.00,Thursday       
59,80259352.3606098
89,15830927.3450227
444,44533202.0018108
702,4597200.
1757,80259352.3606098
2,5, 6,24, 1, 6, 0.00,60.00,Thursday       
59,289886670.237957
89,13318344.0266621
444,55180531.8783121
702,4597200.
1757,289886670.237957
2,5, 6,24, 1, 7, 0.00,60.00,Thursday       
59,325713918.840275
89,33583399.5859392
444,95796493.4167736
702,4597200.
1757,325713918.840275
2,5, 6,24, 1, 8, 0.00,60.00,Thursday       
59,545236195.268897
89,97147442.6378606
444,204227663.75917
702,4597200.
1757,545236195.268897
2,5, 6,24, 1, 9, 0.00,60.00,Thursday       
59,542305180.834514
89,96660690.5880896
444,174055806.616312
702,4597200.
1757,542305180.834514
2,5, 6,24, 1,10, 0.00,60.00,Thursday       
59,544517507.826692
89,96660690.5880896
444,167093070.352576
702,8872703.17862937
1757,544517507.826692
2,5, 6,24, 1,11, 0.00,60.00,Thursday       
59,562530445.220659
89,96660690.5880896
444,174055806.616312
702,13312563.6224922
1757,562530445.220659
2,5, 6,24, 1,12, 0.00,60.00,Thursday       
59,581961147.459458
89,96660690.5880896
444,177667514.306075
702,17997472.4525277
1757,581961147.459458
2,5, 6,24, 1,13, 0.00,60.00,Thursday       
59,583793985.203838
89,96660690.5880896
444,179858086.836092
702,17897150.050434
1757,583793985.203838
2,5, 6,24, 1,14, 0.00,60.00,Thursday       
59,572237401.697943
89,96660690.5880896
444,167093070.352576
702,8821501.69260945
1757,572237401.697943
2,5, 6,24, 1,15, 0.00,60.00,Thursday       
59,557747754.656838
89,96788632.1812991
444,167093070.352576
702,13026474.9272848
1757,557747754.656837
2,5, 6,24, 1,16, 0.00,60.00,Thursday       
59,539412015.096581
89,96660690.5880896
444,177537174.74818
702,13249423.751752
1757,539412015.096581
2,5, 6,24, 1,17, 0.00,60.00,Thursday       
59,416158672.806957
89,53891399.9108589
444,140923939.573165
702,8743774.46996101
1757,416158672.806957
2,5, 6,24, 1,18, 0.00,60.00,Thursday       
59,309249814.008934
89,32962923.6413485
444,69106004.4057847
702,8697763.51497072
1757,309249814.008934
2,5, 6,24, 1,19, 0.00,60.00,Thursday       
59,311735234.732854
89,36632806.720305
444,59822356.0541363
702,4597200.
1757,311735234.732854
2,5, 6,24, 1,20, 0.00,60.00,Thursday       
59,328815629.544971
89,27214811.7519068
444,59822356.0541363
702,7480299.96152386
1757,328815629.544971
2,5, 6,24, 1,21, 0.00,60.00,Thursday       
59,325678693.376926
89,27302827.8427063
444,55180531.8783121
702,5765738.43520617
1757,325678693.376926
2,5, 6,24, 1,22, 0.00,60.00,Thursday       
59,240712378.933939
89,13651413.9213531
444,55180531.8783121
702,4597200.
1757,240712378.933939
2,5, 6,24, 1,23, 0.00,60.00,Thursday       
59,119370041.994932
89,6825706.96067657
444,55180531.8783121
702,4597200.
1757,119370041.994932
2,5, 6,24, 1,24, 0.00,60.00,Thursday       
59,72339991.872542
89,7915463.67251136
444,44533202.0018108
702,4597200.
1757,72339991.872542
2,6, 6,25, 1, 1, 0.00,60.00,Friday         
59,72340000.9157607
89,7915463.67251136
444,44533202.0018108
702,4597200.
1757,72340000.9157607
2,6, 6,25, 1, 2, 0.00,60.00,Friday         
59,72340000.9157607
89,7915463.67251136
444,44533202.0018108
702,4597200.
1757,72340000.9157607
2,6, 6,25, 1, 3, 0.00,60.00,Friday         
59,72340000.9157607
89,7915463.67251136
444,44533202.0018108
702,4597200.
1757,72340000.9157607
2,6, 6,25, 1, 4, 0.00,60.00,Friday         
59,72340000.9157607
89,7915463.67251136
444,44533202.0018108
702,4597200.
1757,72340000.9157607
2,6, 6,25, 1, 5, 0.00,60.00,Friday         
59,80259352.3606098
89,15830927.3450227
444,44533202.0018108
702,4597200.
1757,80259352.3606098
2,6, 6,25, 1, 6, 0.00,60.00,Friday         
59,291635006.774594
89,13438153.3671681
444,55180531.8783121
702,4597200.
1757,291635006.774594
2,6, 6,25, 1, 7, 0.00,60.00,Friday         
59,335785189.949709
89,34077759.8239981
444,95796493.4167736
702,4597200.
1757,335785189.949709
2,6, 6,25, 1, 8, 0.00,60.00,Friday         
59,539323577.581375
89,97063173.4882546
444,204227663.75917
702,4597200.
1757,539323577.581375
2,6, 6,25, 1, 9, 0.00,60.00,Friday         
59,533712085.528134
89,96660690.5880896
444,174055806.616312
702,4597200.
1757,533712085.528134
2,6, 6,25, 1,10, 0.00,60.00,Friday         
59,520455837.675806
89,96660690.5880896
444,167093070.352576
702,4597200.
1757,520455837.675806
2,6, 6,25, 1,11, 0.00,60.00,Friday         
59,529376072.669194
89,96660690.5880896
444,174055806.616312
702,17120187.9778502
1757,529376072.669194
2,6, 6,25, 1,12, 0.00,60.00,Friday         
59,589070194.120857
89,96660690.5880896
444,177667514.306075
702,18418531.1396273
1757,589070194.120857
2,6, 6,25, 1,13, 0.00,60.00,Friday         
59,595190322.62668
89,96660690.5880896
444,179858086.836092
702,13596791.2599821
1757,595190322.62668
2,6, 6,25, 1,14, 0.00,60.00,Friday         
59,592146875.520168
89,96660690.5880896
444,167093070.352576
702,13047534.3059942
1757,592146875.520168
2,6, 6,25, 1,15, 0.00,60.00,Friday         
59,569424964.571286
89,96660690.5880896
444,167093070.352576
702,9305817.32291975
1757,569424964.571286
2,6, 6,25, 1,16, 0.00,60.00,Friday         
59,582715576.462805
89,96660690.5880896
444,177537174.74818
702,17035724.5568068
1757,582715576.462805
2,6, 6,25, 1,17, 0.00,60.00,Friday         
59,466238522.61205
89,53714320.6527742
444,140923939.573165
702,8743744.90612916
1757,466238522.61205
2,6, 6,25, 1,18, 0.00,60.00,Friday         
59,347947175.03514
89,33129134.7433333
444,69106004.4057847
702,4597200.
1757,347947175.03514
2,6, 6,25, 1,19, 0.00,60.00,Friday         
59,339496465.569015
89,37737429.2325583
444,59822356.0541363
702,8642865.6361155
1757,339496465.569015
2,6, 6,25, 1,20, 0.00,60.00,Friday         
59,342727887.922166
89,27293633.0278869
444,59822356.0541363
702,4597200.
1757,342727887.922166
2,6, 6,25, 1,21, 0.00,60.00,Friday         
59,342103587.55021
89,27302827.8427063
444,55180531.8783121
702,4597200.
1757,342103587.55021
2,6, 6,25, 1,22, 0.00,60.00,Friday         
59,245555878.968199
89,13651413.9213531
444,55180531.8783121
702,4597200.
1757,245555878.968199
2,6, 6,25, 1,23, 0.00,60.00,Friday         
59,122078458.774669
89,6825706.96067657
444,55180531.8783121
702,4597200.
1757,122078458.774669
2,6, 6,25, 1,24, 0.00,60.00,Friday         
59,72339991.872542
89,7915463.67251136
444,44533202.0018108
702,4597200.
1757,72339991.872542
2,7, 6,26, 1, 1, 0.00,60.00,Saturday       
59,61036294.1179892
89,7915463.67251136
444,33399901.5013581
702,4597200.
1757,61036294.1179892
2,7, 6,26, 1, 2, 0.00,60.00,Saturday       
59,61036294.1179892
89,7915463.67251136
444,33399901.5013581
702,4597200.
1757,61036294.1179892
2,7, 6,26, 1, 3, 0.00,60.00,Saturday       
59,61036294.1179892
89,7915463.67251136
444,33399901.5013581
702,4597200.
1757,61036294.1179892
2,7, 6,26, 1, 4, 0.00,60.00,Saturday       
59,61036294.1179892
89,7915463.67251136
444,33399901.5013581
702,4597200.
1757,61036294.1179892
2,7, 6,26, 1, 5, 0.00,60.00,Saturday       
59,61036294.1179892
89,7915463.67251136
444,33399901.5013581
702,4597200.
1757,61036294.1179892
2,7, 6,26, 1, 6, 0.00,60.00,Saturday       
59,309072283.287142
89,13307064.0935628
444,55180531.8783121
702,4597200.
1757,309072283.287142
2,7, 6,26, 1, 7, 0.00,60.00,Saturday       
59,308375427.327192
89,11102132.9013529
444,73747828.5816089
702,4597200.
1757,308375427.327192
2,7, 6,26, 1, 8, 0.00,60.00,Saturday       
59,352240293.297731
89,32350731.7410879
444,85222049.4632748
702,4597200.
1757,352240293.297731
2,7, 6,26, 1, 9, 0.00,60.00,Saturday       
59,387206179.844484
89,32220230.1960299
444,93345241.770967
702,4597200.
1757,387206179.844484
2,7, 6,26, 1,10, 0.00,60.00,Saturday       
59,389852137.64923
89,32220230.1960299
444,89863873.639099
702,4597200.
1757,389852137.64923
2,7, 6,26, 1,11, 0.00,60.00,Saturday       
59,397703157.341787
89,32220230.1960299
444,97987065.9467912
702,4597200.
1757,397703157.341787
2,7, 6,26, 1,12, 0.00,60.00,Saturday       
59,348892512.872871
89,16110115.0980149
444,72652542.3166001
702,4597200.
1757,348892512.872871
2,7, 6,26, 1,13, 0.00,60.00,Saturday       
59,343230653.117728
89,16110115.0980149
444,63368893.9649516
702,4597200.
1757,343230653.117728
2,7, 6,26, 1,14, 0.00,60.00,Saturday       
59,302769003.338973
89,16122240.2816851
444,57566613.7451715
702,4597200.
1757,302769003.338973
2,7, 6,26, 1,15, 0.00,60.00,Saturday       
59,278965653.622996
89,16116386.7447409
444,52924789.5693473
702,4597200.
1757,278965653.622996
2,7, 6,26, 1,16, 0.00,60.00,Saturday       
59,278060361.676213
89,16111787.5371419
444,54085245.6133033
702,4597200.
1757,278060361.676213
2,7, 6,26, 1,17, 0.00,60.00,Saturday       