Program Version,EnergyPlus-Windows-64 8.0.0.008, YMD=2018.11.16 10:17
1,5,Environment Title[],Latitude[deg],Longitude[deg],Time Zone[],Elevation[m]
2,6,Day of Simulation[],Month[],Day of Month[],DST Indicator[1=yes 0=no],Hour[],StartMinute[],EndMinute[],DayType
3,3,Cumulative Day of Simulation[],Month[],Day of Month[],DST Indicator[1=yes 0=no],DayType  ! When Daily Meters Requested
4,2,Cumulative Days of Simulation[],Month[]  ! When Monthly Meters Requested
5,1,Cumulative Days of Simulation[] ! When Run Period Meters Requested
59,1,Electricity:Facility [J] !Hourly
1757,1,ElectricityNet:Facility [J] !Hourly
702,1,Gas:Facility [J] !Hourly
89,1,InteriorLights:Electricity [J] !Hourly
444,1,InteriorEquipment:Electricity [J] !Hourly
End of Data Dictionary
1,MIAMI INTL AP ANN HTG 99.6% CONDNS DB,  25.82, -80.30,  -5.00,  11.00
2,1, 1,21, 0, 1, 0.00,60.00,WinterDesignDay
59,140257205.084578
89,0.0
444,0.0
702,4713590.80705582
1757,140257205.084578
2,1, 1,21, 0, 2, 0.00,60.00,WinterDesignDay
59,140267985.513084
89,0.0
444,0.0
702,4713759.61316406
1757,140267985.513084
2,1, 1,21, 0, 3, 0.00,60.00,WinterDesignDay
59,143578102.176742
89,0.0
444,0.0
702,4655535.02437425
1757,143578102.176742
2,1, 1,21, 0, 4, 0.00,60.00,WinterDesignDay
59,142007688.166831
89,0.0
444,0.0
702,4713965.89939556
1757,142007688.166831
2,1, 1,21, 0, 5, 0.00,60.00,WinterDesignDay
59,143371764.115546
89,0.0
444,0.0
702,4714078.71003958
1757,143371764.115546
2,1, 1,21, 0, 6, 0.00,60.00,WinterDesignDay
59,143521134.265453
89,0.0
444,0.0
702,4655675.54177346
1757,143521134.265453
2,1, 1,21, 0, 7, 0.00,60.00,WinterDesignDay
59,205867926.87067
89,0.0
444,0.0
702,4597200.
1757,205867926.87067
2,1, 1,21, 0, 8, 0.00,60.00,WinterDesignDay
59,183395042.207196
89,0.0
444,0.0
702,4597200.
1757,183395042.207196
2,1, 1,21, 0, 9, 0.00,60.00,WinterDesignDay
59,177146203.319139
89,0.0
444,0.0
702,4597200.
1757,177146203.319139
2,1, 1,21, 0,10, 0.00,60.00,WinterDesignDay
59,176988810.170957
89,0.0
444,0.0
702,4597200.
1757,176988810.170957
2,1, 1,21, 0,11, 0.00,60.00,WinterDesignDay
59,177271174.144356
89,0.0
444,0.0
702,4597200.
1757,177271174.144356
2,1, 1,21, 0,12, 0.00,60.00,WinterDesignDay
59,177167328.495061
89,0.0
444,0.0
702,4597200.
1757,177167328.495061
2,1, 1,21, 0,13, 0.00,60.00,WinterDesignDay
59,177479289.524971
89,0.0
444,0.0
702,4597200.
1757,177479289.524971
2,1, 1,21, 0,14, 0.00,60.00,WinterDesignDay
59,177664964.169963
89,0.0
444,0.0
702,8720772.40679602
1757,177664964.169963
2,1, 1,21, 0,15, 0.00,60.00,WinterDesignDay
59,177999844.533486
89,0.0
444,0.0
702,4597200.
1757,177999844.533486
2,1, 1,21, 0,16, 0.00,60.00,WinterDesignDay
59,178188075.874177
89,0.0
444,0.0
702,8654127.77514216
1757,178188075.874177
2,1, 1,21, 0,17, 0.00,60.00,WinterDesignDay
59,178208033.282747
89,0.0
444,0.0
702,4597200.
1757,178208033.282747
2,1, 1,21, 0,18, 0.00,60.00,WinterDesignDay
59,183067934.837003
89,0.0
444,0.0
702,4597200.
1757,183067934.837003
2,1, 1,21, 0,19, 0.00,60.00,WinterDesignDay
59,149577776.720393
89,0.0
444,0.0
702,4708085.66961994
1757,149577776.720393
2,1, 1,21, 0,20, 0.00,60.00,WinterDesignDay
59,150215377.580954
89,0.0
444,0.0
702,4712577.04161218
1757,150215377.580954
2,1, 1,21, 0,21, 0.00,60.00,WinterDesignDay
59,153702278.260821
89,0.0
444,0.0
702,4655034.87812277
1757,153702278.260821
2,1, 1,21, 0,22, 0.00,60.00,WinterDesignDay
59,152224059.415126
89,0.0
444,0.0
702,4713078.88038782
1757,152224059.415126
2,1, 1,21, 0,23, 0.00,60.00,WinterDesignDay
59,153642904.535539
89,0.0
444,0.0
702,4713314.64072326
1757,153642904.53554
2,1, 1,21, 0,24, 0.00,60.00,WinterDesignDay
59,153856294.572325
89,0.0
444,0.0
702,4655334.80518736
1757,153856294.572325
1,MIAMI INTL AP ANN CLG .4% CONDNS DB=>MWB,  25.82, -80.30,  -5.00,  11.00
2,1, 7,21, 0, 1, 0.00,60.00,SummerDesignDay
59,561862360.94353
89,158309273.450227
444,224813060.552967
702,4597200.
1757,561862360.94353
2,1, 7,21, 0, 2, 0.00,60.00,SummerDesignDay
59,562037678.610743
89,158309273.450227
444,224813060.552967
702,4597200.
1757,562037678.610743
2,1, 7,21, 0, 3, 0.00,60.00,SummerDesignDay
59,564627243.512394
89,158309273.450227
444,224813060.552967
702,4597200.
1757,564627243.512395
2,1, 7,21, 0, 4, 0.00,60.00,SummerDesignDay
59,566533209.737341
89,158309273.450227
444,224813060.552967
702,4597200.
1757,566533209.737341
2,1, 7,21, 0, 5, 0.00,60.00,SummerDesignDay
59,568276570.822747
89,158309273.450227
444,224813060.552967
702,4597200.
1757,568276570.822747
2,1, 7,21, 0, 6, 0.00,60.00,SummerDesignDay
59,610846860.963856
89,157961488.405541
444,224813060.552967
702,4597200.
1757,610846860.963856
2,1, 7,21, 0, 7, 0.00,60.00,SummerDesignDay
59,662011014.186572
89,133148731.06777
444,224813060.552967
702,4597200.
1757,662011014.186572
2,1, 7,21, 0, 8, 0.00,60.00,SummerDesignDay
59,717365808.438264
89,125219216.098469
444,224813060.552967
702,4597200.
1757,717365808.438264
2,1, 7,21, 0, 9, 0.00,60.00,SummerDesignDay
59,723827932.894687
89,124547812.705665
444,224813060.552967
702,4597200.
1757,723827932.894687
2,1, 7,21, 0,10, 0.00,60.00,SummerDesignDay
59,743143847.110099
89,124547812.705665
444,224813060.552967
702,4597200.
1757,743143847.110099
2,1, 7,21, 0,11, 0.00,60.00,SummerDesignDay
59,759574444.104121
89,124547812.705665
444,224813060.552967
702,8867858.15232364
1757,759574444.104121
2,1, 7,21, 0,12, 0.00,60.00,SummerDesignDay
59,767581947.589347
89,124547812.705665
444,224813060.552967
702,13303000.4121199
1757,767581947.589347
2,1, 7,21, 0,13, 0.00,60.00,SummerDesignDay
59,771427833.066814
89,124547812.705665
444,224813060.552967
702,17977611.6103747
1757,771427833.066814
2,1, 7,21, 0,14, 0.00,60.00,SummerDesignDay
59,784115588.391704
89,124547812.705665
444,224813060.552967
702,17880185.5318174
1757,784115588.391704
2,1, 7,21, 0,15, 0.00,60.00,SummerDesignDay
59,794601584.818438
89,124547812.705665
444,224813060.552967
702,9398720.83311645
1757,794601584.818438
2,1, 7,21, 0,16, 0.00,60.00,SummerDesignDay
59,796304996.108364
89,124547812.705665
444,224813060.552967
702,12444000.5547777
1757,796304996.108364
2,1, 7,21, 0,17, 0.00,60.00,SummerDesignDay
59,791633223.28615
89,124547812.705665
444,224813060.552967
702,13241215.3825242
1757,791633223.28615
2,1, 7,21, 0,18, 0.00,60.00,SummerDesignDay
59,772544774.427491
89,125375795.938401
444,224813060.552967
702,8741928.82919056
1757,772544774.427491
2,1, 7,21, 0,19, 0.00,60.00,SummerDesignDay
59,743051389.77142
89,136595932.326079
444,224813060.552967
702,8695371.50166701
1757,743051389.771419
2,1, 7,21, 0,20, 0.00,60.00,SummerDesignDay
59,748348231.281558
89,158309273.450227
444,224813060.552967
702,4597200.
1757,748348231.281558
2,1, 7,21, 0,21, 0.00,60.00,SummerDesignDay
59,734125128.196791
89,158309273.450227
444,224813060.552967
702,4597200.
1757,734125128.196791
2,1, 7,21, 0,22, 0.00,60.00,SummerDesignDay
59,720618780.122461
89,158309273.450227
444,224813060.552967
702,4597200.
1757,720618780.122461
2,1, 7,21, 0,23, 0.00,60.00,SummerDesignDay
59,522803673.042293
89,158309273.450227
444,224813060.552967
702,4597200.
1757,522803673.042293
2,1, 7,21, 0,24, 0.00,60.00,SummerDesignDay
59,565907149.404304
89,158309273.450227
444,224813060.552967
702,4597200.
1757,565907149.404304
1,Miami Intl Ap FL USA TMY3 WMO#=722020,  25.82, -80.30,  -5.00,  11.00
2,1, 6,20, 1, 1, 0.00,60.00,Sunday         
59,61036246.3129311
89,7915463.67251136
444,33399901.5013581
702,4597200.
1757,61036246.3129311
2,1, 6,20, 1, 2, 0.00,60.00,Sunday         
59,61036294.1179892
89,7915463.67251136
444,33399901.5013581
702,4597200.
1757,61036294.1179892
2,1, 6,20, 1, 3, 0.00,60.00,Sunday         
59,61036294.1179892
89,7915463.67251136
444,33399901.5013581
702,4597200.
1757,61036294.1179892
2,1, 6,20, 1, 4, 0.00,60.00,Sunday         
59,61036294.1179892
89,7915463.67251136
444,33399901.5013581
702,4597200.
1757,61036294.1179892
2,1, 6,20, 1, 5, 0.00,60.00,Sunday         
59,61036294.1179892
89,7915463.67251136
444,33399901.5013581
702,4597200.
1757,61036294.1179892
2,1, 6,20, 1, 6, 0.00,60.00,Sunday         
59,65208953.895114
89,6765365.41557847
444,41385398.9087341
702,4597200.
1757,65208953.895114
2,1, 6,20, 1, 7, 0.00,60.00,Sunday         
59,188904594.144108
89,5856629.61018971
444,41385398.9087341
702,4597200.
1757,188904594.144108
2,1, 6,20, 1, 8, 0.00,60.00,Sunday         
59,205973457.660373
89,5472944.29535722
444,41385398.9087341
702,4597200.
1757,205973457.660373
2,1, 6,20, 1, 9, 0.00,60.00,Sunday         
59,228603256.428645
89,5374497.91113249
444,41385398.9087341
702,4597200.
1757,228603256.428645
2,1, 6,20, 1,10, 0.00,60.00,Sunday         
59,260729711.427943
89,5370038.36600499
444,41385398.9087341
702,4597200.
1757,260729711.427943
2,1, 6,20, 1,11, 0.00,60.00,Sunday         
59,186196276.551576
89,5370038.36600499
444,41385398.9087341
702,4597200.
1757,186196276.551576
2,1, 6,20, 1,12, 0.00,60.00,Sunday         
59,292089330.416871
89,5370038.36600499
444,41385398.9087341
702,4597200.
1757,292089330.416871
2,1, 6,20, 1,13, 0.00,60.00,Sunday         
59,231780604.533467
89,5370038.36600499
444,41385398.9087341
702,4597200.
1757,231780604.533467
2,1, 6,20, 1,14, 0.00,60.00,Sunday         
59,220302435.235462
89,5370038.36600499
444,41385398.9087341
702,4597200.
1757,220302435.235462
2,1, 6,20, 1,15, 0.00,60.00,Sunday         
59,186227431.697215
89,5370038.36600499
444,41385398.9087341
702,4597200.
1757,186227431.697215
2,1, 6,20, 1,16, 0.00,60.00,Sunday         
59,227397177.295991
89,5370038.36600499
444,41385398.9087341
702,4597200.
1757,227397177.295991
2,1, 6,20, 1,17, 0.00,60.00,Sunday         
59,171120866.951234
89,5397606.79683151
444,41385398.9087341
702,4597200.
1757,171120866.951234
2,1, 6,20, 1,18, 0.00,60.00,Sunday         
59,203390914.85334
89,6476807.42447156
444,33399901.5013581
702,4597200.
1757,203390914.85334
2,1, 6,20, 1,19, 0.00,60.00,Sunday         
59,89049567.3904539
89,7451718.63056483
444,33399901.5013581
702,4597200.
1757,89049567.3904539
2,1, 6,20, 1,20, 0.00,60.00,Sunday         
59,194122992.255727
89,7915463.67251136
444,33399901.5013581
702,4597200.
1757,194122992.255727
2,1, 6,20, 1,21, 0.00,60.00,Sunday         
59,190084113.654083
89,7915463.67251136
444,33399901.5013581
702,4597200.
1757,190084113.654083
2,1, 6,20, 1,22, 0.00,60.00,Sunday         
59,156084212.309085
89,7915463.67251136
444,33399901.5013581
702,4597200.
1757,156084212.309085
2,1, 6,20, 1,23, 0.00,60.00,Sunday         
59,155414829.484008
89,7915463.67251136
444,33399901.5013581
702,4597200.
1757,155414829.484008
2,1, 6,20, 1,24, 0.00,60.00,Sunday         
59,61036294.1179892
89,7915463.67251136
444,33399901.5013581
702,4597200.
1757,61036294.1179892
2,2, 6,21, 1, 1, 0.00,60.00,Monday         
59,72340000.9157607
89,7915463.67251136
444,44533202.0018108
702,4597200.
1757,72340000.9157607
2,2, 6,21, 1, 2, 0.00,60.00,Monday         
59,72340000.9157607
89,7915463.67251136
444,44533202.0018108
702,4597200.
1757,72340000.9157607
2,2, 6,21, 1, 3, 0.00,60.00,Monday         
59,72340000.9157607
89,7915463.67251136
444,44533202.0018108
702,4597200.
1757,72340000.9157607
2,2, 6,21, 1, 4, 0.00,60.00,Monday         
59,72340000.9157607
89,7915463.67251136
444,44533202.0018108
702,4597200.
1757,72340000.9157607
2,2, 6,21, 1, 5, 0.00,60.00,Monday         
59,80259352.3606098
89,15830927.3450227
444,44533202.0018108
702,4597200.
1757,80259352.3606098
2,2, 6,21, 1, 6, 0.00,60.00,Monday         
59,297198559.77902
89,13562140.0815457
444,55180531.8783121
702,4597200.
1757,297198559.77902
2,2, 6,21, 1, 7, 0.00,60.00,Monday         
59,322970211.97029
89,35508292.6714929
444,95796493.4167736
702,4597200.
1757,322970211.97029
2,2, 6,21, 1, 8, 0.00,60.00,Monday         
59,505589053.571956
89,98530633.8743563
444,204227663.75917
702,4597200.
1757,505589053.571956
2,2, 6,21, 1, 9, 0.00,60.00,Monday         
59,491682645.876572
89,96660690.5880896
444,174055806.616312
702,4597200.
1757,491682645.876572
2,2, 6,21, 1,10, 0.00,60.00,Monday         
59,495716149.848549
89,96660690.5880896
444,167093070.352576
702,4597200.
1757,495716149.848549
2,2, 6,21, 1,11, 0.00,60.00,Monday         
59,520775421.463679
89,96660690.5880896
444,174055806.616312
702,4597200.
1757,520775421.463679
2,2, 6,21, 1,12, 0.00,60.00,Monday         
59,524264326.071011
89,96660690.5880896
444,177667514.306075
702,13533989.8033771
1757,524264326.071011
2,2, 6,21, 1,13, 0.00,60.00,Monday         
59,537176039.331189
89,96660690.5880896
444,179858086.836092
702,15519035.1538821
1757,537176039.331189
2,2, 6,21, 1,14, 0.00,60.00,Monday         
59,524598948.558014
89,96660690.5880896
444,167093070.352576
702,11144754.6960431
1757,524598948.558014
2,2, 6,21, 1,15, 0.00,60.00,Monday         
59,518727706.519526
89,96946677.6787933
444,167093070.352576
702,13028758.8748724
1757,518727706.519526
2,2, 6,21, 1,16, 0.00,60.00,Monday         
59,505860787.517124
89,97006885.4873624
444,177537174.74818
702,13251727.2824401
1757,505860787.517124
2,2, 6,21, 1,17, 0.00,60.00,Monday         
59,393606208.607618
89,55446390.6762731
444,140923939.573165
702,8744283.53076575
1757,393606208.607618
2,2, 6,21, 1,18, 0.00,60.00,Monday         
59,296807140.901638
89,33348024.814977
444,69106004.4057847
702,8698068.47390345
1757,296807140.901638
2,2, 6,21, 1,19, 0.00,60.00,Monday         
59,290513653.012023
89,37162717.8498216
444,59822356.0541363
702,4597200.
1757,290513653.012023
2,2, 6,21, 1,20, 0.00,60.00,Monday         
59,294836315.182623
89,27263139.374404
444,59822356.0541363
702,4597200.
1757,294836315.182623
2,2, 6,21, 1,21, 0.00,60.00,Monday         
59,293665339.896832
89,27302827.8427063
444,55180531.8783121
702,4597200.
1757,293665339.896832
2,2, 6,21, 1,22, 0.00,60.00,Monday         
59,212918477.074679
89,13651413.9213531
444,55180531.8783121
702,4597200.
1757,212918477.074679
2,2, 6,21, 1,23, 0.00,60.00,Monday         
59,129708368.127713
89,6825706.96067657
444,55180531.8783121
702,4597200.
1757,129708368.127713
2,2, 6,21, 1,24, 0.00,60.00,Monday         
59,72339991.872542
89,7915463.67251136
444,44533202.0018108
702,4597200.
1757,72339991.872542
2,3, 6,22, 1, 1, 0.00,60.00,Tuesday        
59,72340000.9157607
89,7915463.67251136
444,44533202.0018108
702,4597200.
1757,72340000.9157607
2,3, 6,22, 1, 2, 0.00,60.00,Tuesday        
59,72340000.9157607
89,7915463.67251136
444,44533202.0018108
702,4597200.
1757,72340000.9157607
2,3, 6,22, 1, 3, 0.00,60.00,Tuesday        
59,72340000.9157607
89,7915463.67251136
444,44533202.0018108
702,4597200.
1757,72340000.9157607
2,3, 6,22, 1, 4, 0.00,60.00,Tuesday        
59,72340000.9157607
89,7915463.67251136
444,44533202.0018108
702,4597200.
1757,72340000.9157607
2,3, 6,22, 1, 5, 0.00,60.00,Tuesday        
59,80259352.3606098
89,15830927.3450227
444,44533202.0018108
702,4597200.
1757,80259352.3606098
2,3, 6,22, 1, 6, 0.00,60.00,Tuesday        
59,303266296.912143
89,13392006.992601
444,55180531.8783121
702,4597200.
1757,303266296.912143
2,3, 6,22, 1, 7, 0.00,60.00,Tuesday        
59,328621190.020382
89,33659700.4396849
444,95796493.4167736
702,4597200.
1757,328621190.020382
2,3, 6,22, 1, 8, 0.00,60.00,Tuesday        
59,518378836.467778
89,97066556.8123547
444,204227663.75917
702,4597200.
1757,518378836.467778
2,3, 6,22, 1, 9, 0.00,60.00,Tuesday        
59,485379982.767079
89,97112219.5322493
444,174055806.616312
702,4597200.
1757,485379982.767079
2,3, 6,22, 1,10, 0.00,60.00,Tuesday        
59,463838072.90105
89,96791132.283069
444,167093070.352576
702,8872933.67522601
1757,463838072.90105
2,3, 6,22, 1,11, 0.00,60.00,Tuesday        
59,467297643.451022
89,96660690.5880896
444,174055806.616312
702,13314093.4468013
1757,467297643.451022
2,3, 6,22, 1,12, 0.00,60.00,Tuesday        
59,473860251.240215
89,96660690.5880896
444,177667514.306075
702,18000662.6696768
1757,473860251.240215
2,3, 6,22, 1,13, 0.00,60.00,Tuesday        
59,498223075.221057
89,96660690.5880896
444,179858086.836092
702,17899858.8184421
1757,498223075.221057
2,3, 6,22, 1,14, 0.00,60.00,Tuesday        
59,497509881.081966
89,96660690.5880896
444,167093070.352576
702,9621712.82804534
1757,497509881.081966
2,3, 6,22, 1,15, 0.00,60.00,Tuesday        
59,520713445.789815
89,96660690.5880896
444,167093070.352576
702,12231922.0920978
1757,520713445.789815
2,3, 6,22, 1,16, 0.00,60.00,Tuesday        
59,550218465.203851
89,96660690.5880896
444,177537174.74818
702,13252090.9853864
1757,550218465.203851
2,3, 6,22, 1,17, 0.00,60.00,Tuesday        
59,471265122.096638
89,53700383.6600499
444,140923939.573165
702,8745018.76435031
1757,471265122.096638
2,3, 6,22, 1,18, 0.00,60.00,Tuesday        
59,349376723.894868
89,32477132.3362987
444,69106004.4057847
702,8697693.43952574
1757,349376723.894868
2,3, 6,22, 1,19, 0.00,60.00,Tuesday        
59,334223214.747328
89,35050052.8743848
444,59822356.0541363
702,4597200.
1757,334223214.747328
2,3, 6,22, 1,20, 0.00,60.00,Tuesday        
59,340929641.340855
89,27134576.2195897
444,59822356.0541363
702,8662376.69108378
1757,340929641.340855
2,3, 6,22, 1,21, 0.00,60.00,Tuesday        
59,336033675.284665
89,27302827.8427063
444,55180531.8783121
702,4597200.
1757,336033675.284665
2,3, 6,22, 1,22, 0.00,60.00,Tuesday        
59,261054104.668714
89,13651413.9213531
444,55180531.8783121
702,4597200.
1757,261054104.668714
2,3, 6,22, 1,23, 0.00,60.00,Tuesday        
59,106542600.735235
89,6825706.96067657
444,55180531.8783121
702,4597200.
1757,106542600.735235
2,3, 6,22, 1,24, 0.00,60.00,Tuesday        
59,72339991.872542
89,7915463.67251136
444,44533202.0018108
702,4597200.
1757,72339991.872542
2,4, 6,23, 1, 1, 0.00,60.00,Wednesday      
59,72340000.9157607
89,7915463.67251136
444,44533202.0018108
702,4597200.
1757,72340000.9157607
2,4, 6,23, 1, 2, 0.00,60.00,Wednesday      
59,72340000.9157607
89,7915463.67251136
444,44533202.0018108
702,4597200.
1757,72340000.9157607
2,4, 6,23, 1, 3, 0.00,60.00,Wednesday      
59,72340000.9157607
89,7915463.67251136
444,44533202.0018108
702,4597200.
1757,72340000.9157607
2,4, 6,23, 1, 4, 0.00,60.00,Wednesday      
59,72340000.9157607
89,7915463.67251136
444,44533202.0018108
702,4597200.
1757,72340000.9157607
2,4, 6,23, 1, 5, 0.00,60.00,Wednesday      
59,80259352.3606098
89,15830927.3450227
444,44533202.0018108
702,4597200.
1757,80259352.3606098
2,4, 6,23, 1, 6, 0.00,60.00,Wednesday      
59,318293052.746291
89,13390639.8006321
444,55180531.8783121
702,4597200.
1757,318293052.746291
2,4, 6,23, 1, 7, 0.00,60.00,Wednesday      
59,349130308.549432
89,33889613.3776812
444,95796493.4167736
702,4597200.
1757,349130308.549432
2,4, 6,23, 1, 8, 0.00,60.00,Wednesday      
59,551076686.745453
89,96960945.1459779
444,204227663.75917
702,4597200.
1757,551076686.745453
2,4, 6,23, 1, 9, 0.00,60.00,Wednesday      
59,521386652.675312
89,96660690.5880896
444,174055806.616312
702,4597200.
1757,521386652.675313
2,4, 6,23, 1,10, 0.00,60.00,Wednesday      
59,531309048.179294
89,96660690.5880896
444,167093070.352576
702,4597200.
1757,531309048.179294
2,4, 6,23, 1,11, 0.00,60.00,Wednesday      
59,536307065.209558
89,96660690.5880896
444,174055806.616312
702,17671921.2184198
1757,536307065.209558
2,4, 6,23, 1,12, 0.00,60.00,Wednesday      
59,550464551.184417
89,96660690.5880896
444,177667514.306075
702,17998430.9345267
1757,550464551.184417
2,4, 6,23, 1,13, 0.00,60.00,Wednesday      
59,562599997.344406
89,96660690.5880896
444,179858086.836092
702,13783046.2957257
1757,562599997.344406
2,4, 6,23, 1,14, 0.00,60.00,Wednesday      
59,519193189.421152
89,98416219.5521195
444,167093070.352576
702,12802496.460446
1757,519193189.421152
2,4, 6,23, 1,15, 0.00,60.00,Wednesday      
59,501189453.305978
89,97000157.9914164
444,167093070.352576
702,13028364.526278
1757,501189453.305978
2,4, 6,23, 1,16, 0.00,60.00,Wednesday      
59,514244802.519005
89,96660690.5880896
444,177537174.74818
702,13250109.6369831
1757,514244802.519005
2,4, 6,23, 1,17, 0.00,60.00,Wednesday      
59,439277914.01565
89,53733832.4425883
444,140923939.573165
702,8743718.34460486
1757,439277914.01565
2,4, 6,23, 1,18, 0.00,60.00,Wednesday      
59,330411600.9198
89,32592016.6263353
444,69106004.4057847
702,4597200.
1757,330411600.9198
2,4, 6,23, 1,19, 0.00,60.00,Wednesday      
59,332385006.856165
89,35771509.7493218
444,59822356.0541363
702,8642702.56774379
1757,332385006.856165
2,4, 6,23, 1,20, 0.00,60.00,Wednesday      
59,335050541.547641
89,27200164.7144859
444,59822356.0541363
702,4597200.
1757,335050541.547641
2,4, 6,23, 1,21, 0.00,60.00,Wednesday      
59,329821281.308304
89,27302827.8427063
444,55180531.8783121
702,4597200.
1757,329821281.308304
2,4, 6,23, 1,22, 0.00,60.00,Wednesday      
59,183596908.697945
89,13651413.9213531
444,55180531.8783121
702,4597200.
1757,183596908.697945
2,4, 6,23, 1,23, 0.00,60.00,Wednesday      
59,92453677.6799903
89,6825706.96067657
444,55180531.8783121
702,4597200.
1757,92453677.6799903
2,4, 6,23, 1,24, 0.00,60.00,Wednesday      
59,72339991.872542
89,7915463.67251136
444,44533202.0018108
702,4597200.
1757,72339991.872542
2,5, 6,24, 1, 1, 0.00,60.00,Thursday       
59,72340000.9157607
89,7915463.67251136
444,44533202.0018108
702,4597200.
1757,72340000.9157607
2,5, 6,24, 1, 2, 0.00,60.00,Thursday       
59,72340000.9157607
89,7915463.67251136
444,44533202.0018108
702,4597200.
1757,72340000.9157607
2,5, 6,24, 1, 3, 0.00,60.00,Thursday       
59,72340000.9157607
89,7915463.67251136
444,44533202.0018108
702,4597200.
1757,72340000.9157607
2,5, 6,24, 1, 4, 0.00,60.00,Thursday       
59,72340000.9157607
89,7915463.67251136
444,44533202.0018108
702,4597200.
1757,72340000.9157607
2,5, 6,24, 1, 5, 0.00,60.00,Thursday       
59,80259352.3606098
89,15830927.3450227
444,44533202.0018108
702,4597200.
1757,80259352.3606098
2,5, 6,24, 1, 6, 0.00,60.00,Thursday       
59,291630007.535116
89,13318344.0266621
444,55180531.8783121
702,4597200.
1757,291630007.535116
2,5, 6,24, 1, 7, 0.00,60.00,Thursday       
59,324199923.462865
89,33583399.5859392
444,95796493.4167736
702,4597200.
1757,324199923.462865
2,5, 6,24, 1, 8, 0.00,60.00,Thursday       
59,540620803.392923
89,97147442.6378606
444,204227663.75917
702,4597200.
1757,540620803.392923
2,5, 6,24, 1, 9, 0.00,60.00,Thursday       
59,527497176.31993
89,96660690.5880896
444,174055806.616312
702,4597200.
1757,527497176.31993
2,5, 6,24, 1,10, 0.00,60.00,Thursday       
59,529586706.400093
89,96660690.5880896
444,167093070.352576
702,8871802.84051984
1757,529586706.400093
2,5, 6,24, 1,11, 0.00,60.00,Thursday       
59,566099993.037332
89,96660690.5880896
444,174055806.616312
702,13314007.1434023
1757,566099993.037332
2,5, 6,24, 1,12, 0.00,60.00,Thursday       
59,564522100.849065
89,96660690.5880896
444,177667514.306075
702,17997030.6707349
1757,564522100.849065
2,5, 6,24, 1,13, 0.00,60.00,Thursday       
59,573435055.952949
89,96660690.5880896
444,179858086.836092
702,17897225.7552644
1757,573435055.952949
2,5, 6,24, 1,14, 0.00,60.00,Thursday       
59,557256216.315759
89,96660690.5880896
444,167093070.352576
702,8821925.33159013
1757,557256216.315759
2,5, 6,24, 1,15, 0.00,60.00,Thursday       
59,541136303.400474
89,96788632.1812991
444,167093070.352576
702,13025916.5777492
1757,541136303.400474
2,5, 6,24, 1,16, 0.00,60.00,Thursday       
59,545894675.172228
89,96660690.5880896
444,177537174.74818
702,13251195.8826957
1757,545894675.172228
2,5, 6,24, 1,17, 0.00,60.00,Thursday       
59,409260566.901725
89,53891399.9108589
444,140923939.573165
702,8744578.91457333
1757,409260566.901725
2,5, 6,24, 1,18, 0.00,60.00,Thursday       
59,305507416.538026
89,32962923.6413485
444,69106004.4057847
702,8697493.76398426
1757,305507416.538026
2,5, 6,24, 1,19, 0.00,60.00,Thursday       
59,308089020.343593
89,36632806.720305
444,59822356.0541363
702,4597200.
1757,308089020.343593
2,5, 6,24, 1,20, 0.00,60.00,Thursday       
59,329557768.958355
89,27214811.7519068
444,59822356.0541363
702,4597200.
1757,329557768.958355
2,5, 6,24, 1,21, 0.00,60.00,Thursday       
59,325815254.377196
89,27302827.8427063
444,55180531.8783121
702,4597200.
1757,325815254.377196
2,5, 6,24, 1,22, 0.00,60.00,Thursday       
59,225985621.901802
89,13651413.9213531
444,55180531.8783121
702,4597200.
1757,225985621.901802
2,5, 6,24, 1,23, 0.00,60.00,Thursday       
59,133026968.917018
89,6825706.96067657
444,55180531.8783121
702,4597200.
1757,133026968.917018
2,5, 6,24, 1,24, 0.00,60.00,Thursday       
59,72339991.872542
89,7915463.67251136
444,44533202.0018108
702,4597200.
1757,72339991.872542
2,6, 6,25, 1, 1, 0.00,60.00,Friday         
59,72340000.9157607
89,7915463.67251136
444,44533202.0018108
702,4597200.
1757,72340000.9157607
2,6, 6,25, 1, 2, 0.00,60.00,Friday         
59,72340000.9157607
89,7915463.67251136
444,44533202.0018108
702,4597200.
1757,72340000.9157607
2,6, 6,25, 1, 3, 0.00,60.00,Friday         
59,72340000.9157607
89,7915463.67251136
444,44533202.0018108
702,4597200.
1757,72340000.9157607
2,6, 6,25, 1, 4, 0.00,60.00,Friday         
59,72340000.9157607
89,7915463.67251136
444,44533202.0018108
702,4597200.
1757,72340000.9157607
2,6, 6,25, 1, 5, 0.00,60.00,Friday         
59,80259352.3606098
89,15830927.3450227
444,44533202.0018108
702,4597200.
1757,80259352.3606098
2,6, 6,25, 1, 6, 0.00,60.00,Friday         
59,292000476.786948
89,13438153.3671681
444,55180531.8783121
702,4597200.
1757,292000476.786948
2,6, 6,25, 1, 7, 0.00,60.00,Friday         
59,329228680.727459
89,34077759.8239981
444,95796493.4167736
702,4597200.
1757,329228680.727459
2,6, 6,25, 1, 8, 0.00,60.00,Friday         
59,531616068.229792
89,97063173.4882546
444,204227663.75917
702,4597200.
1757,531616068.229792
2,6, 6,25, 1, 9, 0.00,60.00,Friday         
59,518740521.950879
89,96660690.5880896
444,174055806.616312
702,4597200.
1757,518740521.950879
2,6, 6,25, 1,10, 0.00,60.00,Friday         
59,501781865.447387
89,96660690.5880896
444,167093070.352576
702,8872032.88090039
1757,501781865.447387
2,6, 6,25, 1,11, 0.00,60.00,Friday         
59,527553955.061633
89,96660690.5880896
444,174055806.616312
702,13312107.9973716
1757,527553955.061633
2,6, 6,25, 1,12, 0.00,60.00,Friday         
59,553985922.467745
89,96660690.5880896
444,177667514.306075
702,17995655.1262464
1757,553985922.467745
2,6, 6,25, 1,13, 0.00,60.00,Friday         
59,584342391.997154
89,96660690.5880896
444,179858086.836092
702,17895499.7470525
1757,584342391.997154
2,6, 6,25, 1,14, 0.00,60.00,Friday         
59,563393672.218923
89,96660690.5880896
444,167093070.352576
702,13045696.3620121
1757,563393672.218923
2,6, 6,25, 1,15, 0.00,60.00,Friday         
59,565832319.470644
89,96660690.5880896
444,167093070.352576
702,8811462.86033701
1757,565832319.470644
2,6, 6,25, 1,16, 0.00,60.00,Friday         
59,564129218.911689
89,96660690.5880896
444,177537174.74818
702,13248870.0955903
1757,564129218.911689
2,6, 6,25, 1,17, 0.00,60.00,Friday         
59,466851859.976593
89,53714320.6527742
444,140923939.573165
702,8743642.1757098
1757,466851859.976593
2,6, 6,25, 1,18, 0.00,60.00,Friday         
59,346492474.974744
89,33129134.7433333
444,69106004.4057847
702,8698008.12221481
1757,346492474.974744
2,6, 6,25, 1,19, 0.00,60.00,Friday         
59,331125309.578806
89,37737429.2325583
444,59822356.0541363
702,4597200.
1757,331125309.578806
2,6, 6,25, 1,20, 0.00,60.00,Friday         
59,342296263.994093
89,27293633.0278869
444,59822356.0541363
702,8661633.9337406
1757,342296263.994093
2,6, 6,25, 1,21, 0.00,60.00,Friday         
59,341085282.393412
89,27302827.8427063
444,55180531.8783121
702,4597200.
1757,341085282.393412
2,6, 6,25, 1,22, 0.00,60.00,Friday         
59,248168517.026311
89,13651413.9213531
444,55180531.8783121
702,4597200.
1757,248168517.026311
2,6, 6,25, 1,23, 0.00,60.00,Friday         
59,115423499.853886
89,6825706.96067657
444,55180531.8783121
702,4597200.
1757,115423499.853886
2,6, 6,25, 1,24, 0.00,60.00,Friday         
59,72339991.872542
89,7915463.67251136
444,44533202.0018108
702,4597200.
1757,72339991.872542
2,7, 6,26, 1, 1, 0.00,60.00,Saturday       
59,61036294.1179892
89,7915463.67251136
444,33399901.5013581
702,4597200.
1757,61036294.1179892
2,7, 6,26, 1, 2, 0.00,60.00,Saturday       
59,61036294.1179892
89,7915463.67251136
444,33399901.5013581
702,4597200.
1757,61036294.1179892
2,7, 6,26, 1, 3, 0.00,60.00,Saturday       
59,61036294.1179892
89,7915463.67251136
444,33399901.5013581
702,4597200.
1757,61036294.1179892
2,7, 6,26, 1, 4, 0.00,60.00,Saturday       
59,61036294.1179892
89,7915463.67251136
444,33399901.5013581
702,4597200.
1757,61036294.1179892
2,7, 6,26, 1, 5, 0.00,60.00,Saturday       
59,61036294.1179892
89,7915463.67251136
444,33399901.5013581
702,4597200.
1757,61036294.1179892
2,7, 6,26, 1, 6, 0.00,60.00,Saturday       
59,309576305.947114
89,13307064.0935628
444,55180531.8783121
702,4597200.
1757,309576305.947114
2,7, 6,26, 1, 7, 0.00,60.00,Saturday       
59,302136157.495835
89,11102132.9013529
444,73747828.5816089
702,4597200.
1757,302136157.495835
2,7, 6,26, 1, 8, 0.00,60.00,Saturday       
59,355218692.533864
89,32350731.7410879
444,85222049.4632748
702,4597200.
1757,355218692.533864
2,7, 6,26, 1, 9, 0.00,60.00,Saturday       
59,375405042.24623
89,32220230.1960299
444,93345241.770967
702,4597200.
1757,375405042.24623
2,7, 6,26, 1,10, 0.00,60.00,Saturday       
59,383349639.694446
89,32220230.1960299
444,89863873.639099
702,4597200.
1757,383349639.694446
2,7, 6,26, 1,11, 0.00,60.00,Saturday       
59,395248923.230713
89,32220230.1960299
444,97987065.9467912
702,4597200.
1757,395248923.230713
2,7, 6,26, 1,12, 0.00,60.00,Saturday       
59,341142182.612818
89,16110115.0980149
444,72652542.3166001
702,4597200.
1757,341142182.612818
2,7, 6,26, 1,13, 0.00,60.00,Saturday       
59,329428676.101055
89,16110115.0980149
444,63368893.9649516
702,4597200.
1757,329428676.101055
2,7, 6,26, 1,14, 0.00,60.00,Saturday       
59,301113744.048667
89,16122240.2816851
444,57566613.7451715
702,4597200.
1757,301113744.048667
2,7, 6,26, 1,15, 0.00,60.00,Saturday       
59,274450399.411699
89,16116386.7447409
444,52924789.5693473
702,4597200.
1757,274450399.411699
2,7, 6,26, 1,16, 0.00,60.00,Saturday       
59,273862491.743279
89,16111787.5371419
444,54085245.6133033
702,4597200.
1757,273862491.743279
2,7, 6,26, 1,17, 0.00,60.00,Saturday       