Program Version,EnergyPlus-Windows-64 8.0.0.007, YMD=2019.06.17 14:08
1,5,Environment Title[],Latitude[deg],Longitude[deg],Time Zone[],Elevation[m]
2,6,Day of Simulation[],Month[],Day of Month[],DST Indicator[1=yes 0=no],Hour[],StartMinute[],EndMinute[],DayType
3,3,Cumulative Day of Simulation[],Month[],Day of Month[],DST Indicator[1=yes 0=no],DayType  ! When Daily Report Variables Requested
4,2,Cumulative Days of Simulation[],Month[]  ! When Monthly Report Variables Requested
5,1,Cumulative Days of Simulation[] ! When Run Period Report Variables Requested
824,1,CORE_BOTTOM,Zone Mean Air Temperature [C] !Hourly
825,1,TOPFLOOR_PLENUM,Zone Mean Air Temperature [C] !Hourly
826,1,MIDFLOOR_PLENUM,Zone Mean Air Temperature [C] !Hourly
827,1,FIRSTFLOOR_PLENUM,Zone Mean Air Temperature [C] !Hourly
828,1,CORE_MID,Zone Mean Air Temperature [C] !Hourly
829,1,CORE_TOP,Zone Mean Air Temperature [C] !Hourly
830,1,PERIMETER_TOP_ZN_3,Zone Mean Air Temperature [C] !Hourly
831,1,PERIMETER_TOP_ZN_2,Zone Mean Air Temperature [C] !Hourly
832,1,PERIMETER_TOP_ZN_1,Zone Mean Air Temperature [C] !Hourly
833,1,PERIMETER_TOP_ZN_4,Zone Mean Air Temperature [C] !Hourly
834,1,PERIMETER_BOT_ZN_3,Zone Mean Air Temperature [C] !Hourly
835,1,PERIMETER_BOT_ZN_2,Zone Mean Air Temperature [C] !Hourly
836,1,PERIMETER_BOT_ZN_1,Zone Mean Air Temperature [C] !Hourly
837,1,PERIMETER_BOT_ZN_4,Zone Mean Air Temperature [C] !Hourly
838,1,PERIMETER_MID_ZN_3,Zone Mean Air Temperature [C] !Hourly
839,1,PERIMETER_MID_ZN_2,Zone Mean Air Temperature [C] !Hourly
840,1,PERIMETER_MID_ZN_1,Zone Mean Air Temperature [C] !Hourly
841,1,PERIMETER_MID_ZN_4,Zone Mean Air Temperature [C] !Hourly
End of Data Dictionary
1,BUFFALO.NIAGARA.INTL.AP_NY_USA ANN HTG 99.6% CONDNS DB,  42.93, -78.73,  -5.00, 215.00
2,1, 1,21, 0, 1, 0.00,60.00,WinterDesignDay
824,19.6873460654555
825,13.9398039427252
826,17.1566289335886
827,17.9338946128694
828,18.5227880225837
829,17.2968253218876
830,15.2715234197172
831,15.2351248788591
832,15.2524680568443
833,15.2186091426071
834,15.5384297607616
835,15.3966573242275
836,15.4605853481454
837,15.3277097234222
838,15.3917089226468
839,15.3544316595327
840,15.3777905911687
841,15.3399757348487
2,1, 1,21, 0, 2, 0.00,60.00,WinterDesignDay
824,19.3401875182396
825,13.6206457297986
826,16.9661075969712
827,17.7646810812761
828,18.2061902968676
829,17.0020993529157
830,15.2253220904211
831,15.2181569476835
832,15.2362688116362
833,15.2091152194577
834,15.4550406532471
835,15.3807106127741
836,15.4167009280643
837,15.3470648971767
838,15.4112814106617
839,15.3826962669154
840,15.4008509039168
841,15.371525733876
2,1, 1,21, 0, 3, 0.00,60.00,WinterDesignDay
824,18.939404570955
825,13.1914419036676
826,16.8563891361876
827,17.5798717234783
828,18.1405951524128
829,16.8251580075684
830,14.8073021150783
831,14.7788512370845
832,14.8207783411681
833,14.7611445605773
834,15.5208276149403
835,15.4967564808609
836,15.5093048516311
837,15.4869610008534
838,15.1472274997128
839,15.0853378874423
840,15.123732355263
841,15.0606298419552
2,1, 1,21, 0, 4, 0.00,60.00,WinterDesignDay
824,18.7800355000017
825,13.0603560697978
826,16.7154988814887
827,17.4520694472949
828,17.9992300253802
829,16.6118057553042
830,15.1383393248476
831,15.1169503626491
832,15.1433141690794
833,15.1045956489078
834,15.50392781707
835,15.4798204754064
836,15.4922854068871
837,15.4697789767159
838,15.3250734441196
839,15.2780203888272
840,15.3036867366222
841,15.258191366028
2,1, 1,21, 0, 5, 0.00,60.00,WinterDesignDay
824,18.7599577357828
825,12.9181812526962
826,16.6017652017732
827,17.3640576309349
828,17.8764336449245
829,16.4279953227256
830,15.1418424288982
831,15.1238831029927
832,15.1529122424523
833,15.1053698170593
834,15.369055340928
835,15.3206648445355
836,15.3459439207581
837,15.3006248399398
838,15.3224742713264
839,15.281047195199
840,15.2975181303579
841,15.2742442356274
2,1, 1,21, 0, 6, 0.00,60.00,WinterDesignDay
824,18.657616471796
825,12.920188118235
826,16.6243472696977
827,17.4661919192181
828,17.7949340418633
829,17.1330941570838
830,15.8593901844981
831,15.8183642150021
832,15.8517220910604
833,15.8007258596707
834,17.1255946390004
835,17.1089651051035
836,17.1171707850791
837,17.0933224873724
838,16.1833319110948
839,16.1404398380275
840,16.1766198617958
841,16.1181695305127
2,1, 1,21, 0, 7, 0.00,60.00,WinterDesignDay
824,19.5844989926768
825,14.5782895412147
826,17.5671521545985
827,18.2147964369152
828,19.5284994442255
829,19.4646902647201
830,19.3631217953305
831,19.3393246645079
832,19.3533212620399
833,19.3373218084291
834,19.5188159802294
835,19.5230245604077
836,19.5152455098022
837,19.5197619639671
838,19.37350262546
839,19.3458847987875
840,19.3586042512197
841,19.3387274331026
2,1, 1,21, 0, 8, 0.00,60.00,WinterDesignDay
824,20.9590896948387
825,16.2527176897636
826,18.4029431808973
827,18.9046792281566
828,20.9156151301038
829,20.9163744503431
830,20.9588921817057
831,20.9381191753811
832,20.949299045219
833,20.9374154779423
834,20.9336066755626
835,20.9255414021112
836,20.9119010364395
837,20.9162392981384
838,20.9407182576893
839,20.888374713466
840,20.9245002833868
841,20.8824847261578
2,1, 1,21, 0, 9, 0.00,60.00,WinterDesignDay
824,21.0000370979298
825,17.1277525808603
826,18.6514368930902
827,19.1271229078587
828,21.0000507975576
829,21.0000682949313
830,21.0003746007343
831,21.0003958669704
832,21.0003026339055
833,21.0003903165218
834,21.0003417802392
835,21.0003569582043
836,21.0002871165128
837,21.0003618529818
838,21.0003563661596
839,21.0003593689591
840,21.0002852280801
841,21.0003665414216
2,1, 1,21, 0,10, 0.00,60.00,WinterDesignDay
824,21.0000334335142
825,17.4363618648626
826,18.7308826667968
827,19.189514468478
828,21.0000476509578
829,21.0000619466809
830,21.0005028396383
831,21.0005163364945
832,21.0003922093798
833,21.0005091980216
834,21.0004643936573
835,21.0004677522666
836,21.000375590786
837,21.000474929225
838,21.0004895847433
839,21.0004770198356
840,21.0003753962657
841,21.0004868008199
2,1, 1,21, 0,11, 0.00,60.00,WinterDesignDay
824,21.0000333028911
825,17.578260594517
826,18.8010243392665
827,19.2427924342143
828,21.0000495021261
829,21.0000623160094
830,21.000627607591
831,21.0006283574748
832,21.0004787414098
833,21.0006188205991
834,21.0005869900083
835,21.0005739121645
836,21.0004638855961
837,21.0005829799111
838,21.0006207216943
839,21.0005847206993
840,21.0004636841222
841,21.0005972011922
2,1, 1,21, 0,12, 0.00,60.00,WinterDesignDay
824,21.000036465836
825,17.652674550679
826,18.8671582824497
827,19.2925548030268
828,21.0000546965333
829,21.0000682748041
830,21.0006543202054
831,21.0006276492699
832,21.0004882795289
833,21.0006178797616
834,21.0006226188427
835,21.0005762061671
836,21.000478765514
837,21.0005855098384
838,21.0006554521711
839,21.000585487123
840,21.0004757339411
841,21.0005982544438
2,1, 1,21, 0,13, 0.00,60.00,WinterDesignDay
824,21.0000415379459
825,17.6978160003115
826,18.9298029006208
827,19.3394639690585
828,21.0000621085822
829,21.0000765608327
830,21.0007130873199
831,21.0006855805336
832,21.000532925354
833,21.0006751233669
834,21.0006822199423
835,21.0006317354275
836,21.0005240854559
837,21.0006419339065
838,21.0007169931795
839,21.0006413954602
840,21.0005206647185
841,21.0006553668399
2,1, 1,21, 0,14, 0.00,60.00,WinterDesignDay
824,21.000043877184
825,17.7304179232275
826,18.9893973912258
827,19.3839846499872
828,21.000065215363
829,21.000080402728
830,21.0006814699724
831,21.0006289254301
832,21.0004997516297
833,21.0006188309016
834,21.0006622009842
835,21.0005835280271
836,21.0004978942578
837,21.0005931517926
838,21.0006909118254
839,21.0005888342717
840,21.0004900838781
841,21.0006019973437
2,1, 1,21, 0,15, 0.00,60.00,WinterDesignDay
824,21.000046521854
825,17.7562740547918
826,19.0458746542171
827,19.4261297120488
828,21.0000680061142
829,21.0000837823779
830,21.0006384072006
831,21.0005797886537
832,21.0004658979185
833,21.0005705652648
834,21.0006269633137
835,21.0005406066612
836,21.000467472681
837,21.0005495527032
838,21.0006500151495
839,21.0005434849202
840,21.0004576032696
841,21.0005556661349
2,1, 1,21, 0,16, 0.00,60.00,WinterDesignDay
824,21.0000465153686
825,17.7779470911056
826,19.0992762032746
827,19.4659605558609
828,21.0000668531622
829,21.0000826494944
830,21.0005521789139
831,21.0004851160508
832,21.0003982223045
833,21.0004773128229
834,21.0005504052712
835,21.00045515916
836,21.0004039783451
837,21.0004627701676
838,21.0005654856888
839,21.0004547621402
840,21.0003917216842
841,21.0004650674598
2,1, 1,21, 0,17, 0.00,60.00,WinterDesignDay
824,21.00004621196
825,17.7967019370584
826,19.1496920246085
827,19.5035630369875
828,21.0000650739456
829,21.0000805992832
830,21.0004923305053
831,21.0004381352525
832,21.0003589344494
833,21.0004317575349
834,21.0004925670942
835,21.0004111490156
836,21.0003637334923
837,21.0004179210967
838,21.0005033901189
839,21.0004106142678
840,21.0003521249616
841,21.0004196829811
2,1, 1,21, 0,18, 0.00,60.00,WinterDesignDay
824,21.0000423061798
825,17.8132383506779
826,19.1972322870707
827,19.5390322560754
828,21.0000592134977
829,21.0000731849275
830,21.000451915604
831,21.0004014676253
832,21.000328857964
833,21.0003952337534
834,21.0004538784784
835,21.0003795224131
836,21.0003356377462
837,21.0003858415515
838,21.0004619004043
839,21.0003766563991
840,21.0003231626397
841,21.0003851546405
2,1, 1,21, 0,19, 0.00,60.00,WinterDesignDay
824,20.8982219572527
825,17.0913033577059
826,18.6633556222747
827,19.0684768699297
828,20.8087655714445
829,20.7169709915847
830,20.0916759004775
831,20.0572864543643
832,20.0797078886514
833,20.0444961943385
834,20.2311431573152
835,20.2156807964679
836,20.20964135893
837,20.1965651753879
838,20.1653466073916
839,20.1218502681263
840,20.1464631151428
841,20.1062603873871
2,1, 1,21, 0,20, 0.00,60.00,WinterDesignDay
824,20.905973819936
825,16.6664517831536
826,18.4810401396957
827,18.9612591573108
828,20.8210981447656
829,20.7269007916553
830,20.1565671030771
831,20.0977169019328
832,20.1355446379765
833,20.0842932209341
834,20.3289324797501
835,20.3076070845467
836,20.3026259935977
837,20.2885712717856
838,20.2184545244178
839,20.1496447155036
840,20.1895342415082
841,20.1294805669435
2,1, 1,21, 0,21, 0.00,60.00,WinterDesignDay
824,20.8102926064802
825,16.319156591228
826,18.4057486396158
827,18.8980551260229
828,20.6514435164934
829,20.4578129282885
830,19.3824795161975
831,19.3284336834833
832,19.363718369282
833,19.3077599431361
834,19.7821142803219
835,19.7442296475939
836,19.7558571347738
837,19.7230504041136
838,19.5783648830814
839,19.5096170505662
840,19.5547080688362
841,19.4815997326071
2,1, 1,21, 0,22, 0.00,60.00,WinterDesignDay
824,20.9073407711003
825,16.4109357104747
826,18.4734544808758
827,18.9599621658316
828,20.810670647971
829,20.7006976328287
830,20.036299739002
831,19.9824325373411
832,20.0156612397375
833,19.9683013449635
834,20.2529256523692
835,20.2310853172462
836,20.2286949961623
837,20.2127696031768
838,20.1319883489299
839,20.0630157502743
840,20.1076892064402
841,20.0393943270904
2,1, 1,21, 0,23, 0.00,60.00,WinterDesignDay
824,20.099324780772
825,15.6659640912328
826,18.077853655499
827,18.6175770226839
828,19.7027799623955
829,18.9843231757397
830,16.2654769464983
831,16.1472323156435
832,16.2145195324601
833,16.110984364602
834,17.3079558001923
835,17.127982540715
836,17.2229493438743
837,17.081029454713
838,16.690698325243
839,16.5041395026676
840,16.6095601006764
841,16.4551354588409
2,1, 1,21, 0,24, 0.00,60.00,WinterDesignDay
824,19.8597790382988
825,14.3483464704372
826,17.3543276216449
827,18.073767603245
828,18.8291843290037
829,17.7596037685094
830,15.1269742536251
831,15.0798485930152
832,15.1088752634903
833,15.0561629803485
834,15.9160733442055
835,15.7919671205192
836,15.8431608985698
837,15.726255240421
838,15.4409650835739
839,15.3910202392416
840,15.4195623805283
841,15.3687593910432
1,BUFFALO.NIAGARA.INTL.AP_NY_USA ANN CLG .4% CONDNS DB=>MWB,  42.93, -78.73,  -5.00, 215.00
2,1, 7,21, 0, 1, 0.00,60.00,SummerDesignDay
824,27.3276539404774
825,25.7136089812901
826,26.0511150170707
827,26.5185421833241
828,26.3016043589413
829,26.4041752625634
830,25.7629347862296
831,24.6807077670816
832,25.2837004985377
833,24.8808990891282
834,25.3498492362262
835,23.8599319051317
836,24.7366907420585
837,24.1237546535676
838,25.7415587068379
839,24.0265520220533
840,24.9633780838456
841,24.3503380508065
2,1, 7,21, 0, 2, 0.00,60.00,SummerDesignDay
824,27.269376438732
825,25.6339448307303
826,26.0035753947054
827,26.5284321981273
828,26.2574588169841
829,26.2442216162764
830,25.5813899988669
831,24.3755598827931
832,25.0245022151686
833,24.5340364507523
834,25.2271545964716
835,23.5966318008018
836,24.5588000098483
837,23.8094864396202
838,25.6295093840823
839,23.8603269873295
840,24.8091606367233
841,24.1409583431358
2,1, 7,21, 0, 3, 0.00,60.00,SummerDesignDay
824,27.7789821519143
825,25.5721048175506
826,26.0312658616764
827,26.5689345077506
828,26.5359294022954
829,26.2917494063908
830,25.520776641687
831,24.2444926742137
832,24.9259733323624
833,24.3683518442404
834,25.4132023165023
835,23.9346387956669
836,24.8158571836197
837,24.1239381173726
838,25.8336047196849
839,24.1961219623237
840,25.0730303308014
841,24.4479969215023
2,1, 7,21, 0, 4, 0.00,60.00,SummerDesignDay
824,27.3151478774637
825,25.426682130556
826,26.0561984914197
827,26.6550766217355
828,26.4305976909426
829,26.121755388977
830,25.1730016320171
831,23.6262309692291
832,24.4215402677574
833,23.6754682931511
834,25.2258251495769
835,23.5434650035251
836,24.5538777113468
837,23.7052549203767
838,25.6304100207738
839,23.7256473737887
840,24.7374896753277
841,23.9531890775459
2,1, 7,21, 0, 5, 0.00,60.00,SummerDesignDay
824,27.2730713765491
825,25.3118722978907
826,26.0313989729027
827,26.5978732379254
828,26.3922673701202
829,26.0633649624407
830,25.0970085115578
831,23.5412923376414
832,24.3335466318266
833,23.6039921459587
834,25.1898856548681
835,23.5120155000825
836,24.5088814326585
837,23.6645002855318
838,25.6068380352795
839,23.6952840587359
840,24.7105918898345
841,23.9200933394924
2,1, 7,21, 0, 6, 0.00,60.00,SummerDesignDay
824,27.8019373188635
825,25.3343819880759
826,26.107202362545
827,26.6668180710633
828,26.663619433876
829,26.322078127665
830,25.5751357020529
831,24.6760538781549
832,24.6204223401142
833,23.9167163006003
834,25.6869271350946
835,24.7058656038503
836,24.7862297777195
837,24.0080257936536
838,26.1130099553201
839,24.8835384233688
840,25.0237072478783
841,24.2795492079874
2,1, 7,21, 0, 7, 0.00,60.00,SummerDesignDay
824,25.6975096149777
825,25.5453476049057
826,26.0173960497952
827,26.3736803185468
828,25.4283996883384
829,25.3493462186787
830,25.1960072375077
831,25.1437222537353
832,24.4122217969289
833,23.4575543472267
834,25.2814950411228
835,25.198840617608
836,24.7232595046968
837,23.7361715405513
838,25.3779167312518
839,25.2023565097367
840,24.8452873039257
841,23.8381362292422
2,1, 7,21, 0, 8, 0.00,60.00,SummerDesignDay
824,25.3101462784143
825,25.1909983926347
826,25.4799962433948
827,25.7511102768046
828,24.7647682759194
829,24.2252658549509
830,24.0595711134803
831,24.3798215247415
832,24.0071452584786
833,23.9697551538807
834,24.5683311672245
835,24.9963353186554
836,24.0502886639929
837,24.032722280042
838,24.5672852860428
839,24.8971317055756
840,24.0659326789632
841,24.0448369987066
2,1, 7,21, 0, 9, 0.00,60.00,SummerDesignDay
824,25.6154057079527
825,25.2727047291846
826,25.4918409243442
827,25.8545831958074
828,24.8923972991625
829,24.3780348265804
830,24.1307487248548
831,25.1528820582686
832,24.0033795614932
833,24.0033585818025
834,24.747795346279
835,25.7454862449017
836,24.114620840828
837,24.1042063723342
838,24.7546865957274
839,25.6265727025302
840,24.1380166983697
841,24.1278307086156
2,1, 7,21, 0,10, 0.00,60.00,SummerDesignDay
824,25.7521963229158
825,25.5063437134055
826,25.5188477375446
827,26.0319618847869
828,24.6878600487177
829,24.0940888636054
830,24.012028115523
831,24.565922348605
832,24.0051482796855
833,24.0049536040228
834,25.0153024519452
835,25.8508515164685
836,24.2665236456521
837,24.133409637746
838,24.6951595201571
839,25.2556173450664
840,24.1498347786968
841,24.1237108163514
2,1, 7,21, 0,11, 0.00,60.00,SummerDesignDay
824,25.3931000766059
825,25.5682955724452
826,25.4041008731981
827,25.8950667497492
828,24.4972510543994
829,24.0239329772942
830,24.0041703476094
831,24.0948840201742
832,24.0044752700594
833,24.0045617547425
834,24.9431881260602
835,24.8797583210784
836,24.5294236332163
837,24.1599213825929
838,24.6541363487558
839,24.5271656278611
840,24.2573868006716
841,24.1718130996253
2,1, 7,21, 0,12, 0.00,60.00,SummerDesignDay
824,25.1496708797722
825,25.8286241609761
826,25.341818930281
827,25.7943036515088
828,24.3324124340564
829,24.0048036605001
830,24.0068262220086
831,24.0041454104919
832,24.0181282346569
833,24.0039325290107
834,24.8792998260379
835,24.2353373307286
836,24.8421038303661
837,24.1419049110422
838,24.5828783421431
839,24.1965256304094
840,24.4917380007967
841,24.1302145242711
2,1, 7,21, 0,13, 0.00,60.00,SummerDesignDay
824,24.9810988355623
825,25.9795035886385
826,25.3065456297501
827,25.7251285989294
828,24.2278123323289
829,24.0023336386361
830,24.0029128094559
831,24.0029119385
832,24.0029095579295
833,24.0033565339371
834,24.8331125813445
835,24.1339955417702
836,25.0070764628332
837,24.1123158653332
838,24.5487030079183
839,24.1127252477221
840,24.6611251230969
841,24.0960568165611
2,1, 7,21, 0,14, 0.00,60.00,SummerDesignDay
824,25.0071739045204
825,25.9048099738719
826,25.3265927171139
827,25.721132940956
828,24.2653159702473
829,24.006816109569
830,24.06794854779
831,24.0087390159825
832,24.1550544623581
833,24.0104223279745
834,24.9047095267993
835,24.1747344943509
836,25.0651931844387
837,24.1971816623735
838,24.6439899648874
839,24.1683724114516
840,24.7515715663137
841,24.1870912468081
2,1, 7,21, 0,15, 0.00,60.00,SummerDesignDay
824,25.1073504609489
825,25.8694499908619
826,25.3791304428552
827,25.7611188653908
828,24.3616794756035
829,24.1211340710839
830,24.2592098307007
831,24.1047941818914
832,24.1972470456725
833,24.1473685104499
834,25.0030370999723
835,24.2429371268464
836,24.893790998155
837,24.4150022399617
838,24.7717840233536
839,24.2587516833296
840,24.6341054494402
841,24.3752668499728
2,1, 7,21, 0,16, 0.00,60.00,SummerDesignDay
824,25.103558945627
825,25.8488836806536
826,25.4090476975644
827,25.7894752371857
828,24.3681504846132
829,24.1547363718419
830,24.2622467857851
831,24.0918714217417
832,24.1027691531478
833,24.4679521759825
834,24.9663112714011
835,24.2366719359992
836,24.4222256216281
837,25.0587867878209
838,24.7454357248113
839,24.2550444083607
840,24.3146662157084
841,24.8349720892377
2,1, 7,21, 0,17, 0.00,60.00,SummerDesignDay
824,24.981457259046
825,25.7276911843259
826,25.3881621632339
827,25.7636780564916
828,24.2558523293023
829,24.0391452757604
830,24.070199530297
831,24.015760532598
832,24.0160912278309
833,24.546643689448
834,24.8030725249475
835,24.1632941696824
836,24.1730215294219
837,25.3907201590454
838,24.5597108872017
839,24.1615107554818
840,24.1668715429942
841,25.0962325088338
2,1, 7,21, 0,18, 0.00,60.00,SummerDesignDay
824,24.8131282952847
825,25.5821353072668
826,25.305307115765
827,25.6774165228428
828,24.116048296848
829,24.0029098194273
830,24.0034003751806
831,24.0034564662303
832,24.0032192766889
833,24.011425642879
834,24.6946324728677
835,24.1036893386541
836,24.1059734406789
837,25.0544122493631
838,24.426155575365
839,24.092869132022
840,24.0938096524506
841,24.7455647911428
2,1, 7,21, 0,19, 0.00,60.00,SummerDesignDay
824,24.5693252215131
825,25.353808364955
826,25.2143635975625
827,25.51064861068
828,24.0105197475405
829,24.0023038508805
830,24.0026514482312
831,24.0027051423502
832,24.0025328727164
833,24.0024749467948
834,24.552387188348
835,24.0346943901605
836,24.0352804822313
837,24.2020793512775
838,24.1107954050676
839,24.0119400384733
840,24.0119430868741
841,24.0597697391185
2,1, 7,21, 0,20, 0.00,60.00,SummerDesignDay
824,24.0822298649092
825,25.1010266976998
826,25.1924666585259
827,25.3067058272087
828,24.0022506426173
829,24.0020750092346
830,24.002251420748
831,24.0025305466758
832,24.002391272832
833,24.0020207280275
834,24.0435700792765
835,23.9713442842574
836,24.0030489086642
837,24.0037796580967
838,24.002363157392
839,24.0025866016671
840,24.0024489657588
841,24.0021721222182
2,1, 7,21, 0,21, 0.00,60.00,SummerDesignDay
824,24.3643300403067
825,24.8538171827751
826,25.1220510402759
827,25.2194460182457
828,24.0722687766344
829,24.0017816600052
830,24.0020623589376
831,23.9614809127473
832,24.0020989375532
833,24.0019966861348
834,24.0174364897462
835,23.9267095803784
836,23.9988364790682
837,23.9981299490773
838,23.9989016063314
839,23.9990722646775
840,23.9989222400268
841,23.9984429100611
2,1, 7,21, 0,22, 0.00,60.00,SummerDesignDay
824,24.6388388994961
825,24.6758842220387
826,25.1553394698444
827,25.3710605225809
828,24.0081006287679
829,23.9999058780239
830,24.0003551329605
831,23.802435635535
832,24.0003310906982
833,23.9982496779647
834,24.0024938179827
835,24.001734494111
836,24.0016919930031
837,24.001975824596
838,24.0033354642547
839,23.9270847281957
840,24.0033672092565
841,24.003688116524
2,1, 7,21, 0,23, 0.00,60.00,SummerDesignDay
824,27.2427662245996
825,25.1785505919336
826,25.8761814088281
827,26.2336168714207
828,25.9831924641239
829,25.9804011855901
830,25.707915622147
831,25.2388550150979
832,25.55431912189
833,25.5372785584446
834,25.232744850062
835,24.3860879775157
836,24.898769192758
837,24.6477892985281
838,25.8005292751007
839,25.1279819165177
840,25.5201009092292
841,25.4260007354273
2,1, 7,21, 0,24, 0.00,60.00,SummerDesignDay
824,27.2352132608311
825,25.5825427507831
826,26.0461455656721
827,26.5415553848126
828,26.3405660663658
829,26.4640573534155
830,25.9629801308089
831,25.2078077371835
832,25.6468337931715
833,25.4945196938409
834,25.3275509568117
835,23.8420984749496
836,24.7119675527782
837,24.1213379468982
838,25.9406510237765
839,24.6197876365027
840,25.3575623684586
841,24.967886232913
1,Buffalo Niagara Intl Ap NY USA TMY3 WMO#=725280,  42.93, -78.73,  -5.00, 215.00
2,1, 1, 1, 0, 1, 0.00,60.00,Holiday        
824,19.4743554084814
825,13.6763619507359
826,15.3034203500711
827,16.9069546973354
828,16.5578681264191
829,15.5652936003593
830,15.2954506573038
831,15.2677350925061
832,15.2940389516332
833,15.2621584480829
834,16.5835472994953
835,16.4767287834774
836,16.6348339714757
837,16.446317147896
838,15.4259824528321
839,15.4019366666937
840,15.4292796926701
841,15.3978695839448
2,1, 1, 1, 0, 2, 0.00,60.00,Holiday        
824,19.3610150438617
825,13.8373186845936
826,15.3817367055001
827,16.9055523090904
828,16.5113372376822
829,15.5681138204373
830,15.3501444287537
831,15.3380340310899
832,15.3499067218663
833,15.3344327372357
834,16.6030142579432
835,16.4927564225619
836,16.6249711465081
837,16.4615056478509
838,15.4543498976551
839,15.4419011459764
840,15.4573429074868
841,15.4384320585707
2,1, 1, 1, 0, 3, 0.00,60.00,Holiday        
824,19.3403980218886
825,13.7934294392652
826,15.3610137242302
827,16.8901278534076
828,16.4974425501734
829,15.5335081201706
830,15.1023435601372
831,15.0807395926209
832,15.1076162899787
833,15.0738320424907
834,16.5777317045077
835,16.4652791068008
836,16.6060057665567
837,16.4329416120044
838,15.3091853167258
839,15.2851364855453
840,15.3217719881027
841,15.2775093703591
2,1, 1, 1, 0, 4, 0.00,60.00,Holiday        
824,19.3257185937035
825,13.9054568414439
826,15.4517876692263
827,16.9662034788796
828,16.4847905934802
829,15.5711376704627
830,15.4108299637553
831,15.3913118287532
832,15.4080630025982
833,15.3914466265798
834,16.7077049146341
835,16.5730500910357
836,16.7080892646361
837,16.5562845381668
838,15.5032956637628
839,15.4841631713072
840,15.5033217404674
841,15.4848189476331
2,1, 1, 1, 0, 5, 0.00,60.00,Holiday        
824,19.3209611631042
825,13.9587253626235
826,15.4867520013574
827,16.9985271575079
828,16.4845814602303
829,15.5664117159143
830,15.3835290214111
831,15.3672591723212
832,15.379910013178
833,15.3689275643498
834,16.7558343726099
835,16.6137593550067
836,16.7483624797315
837,16.6060205353583
838,15.4855003008573
839,15.4670150352198
840,15.4852026388939
841,15.4694060541192
2,1, 1, 1, 0, 6, 0.00,60.00,Holiday        
824,19.3149862525933
825,13.9007930871023
826,15.4599612119398
827,16.9784935662933
828,16.476096933285
829,15.5309667654938
830,15.1792891909488
831,15.1532393153168
832,15.1733141321193
833,15.1503875350773
834,16.7511684909196
835,16.6043611228507
836,16.7332277139281
837,16.5974574806125
838,15.3784675817789
839,15.349222954825
840,15.3815176656103
841,15.3471037215935
2,1, 1, 1, 0, 7, 0.00,60.00,Holiday        
824,19.382752364666
825,13.9121165720079
826,15.4725924387265
827,16.9973692936303
828,16.5673766260751
829,15.5898599225491
830,15.4162911011511
831,15.3980839706462
832,15.4106139214111
833,15.3955418586547
834,16.867858610091
835,16.7191134091894
836,16.8482931745964
837,16.7125718152524
838,15.5094066920362
839,15.4897389607044
840,15.5059689488074
841,15.4877873083464
2,1, 1, 1, 0, 8, 0.00,60.00,Holiday        
824,19.4111278086271
825,13.9921129047665
826,15.4761800142121
827,16.9462613769138
828,16.5534128411722
829,15.5767113966023
830,15.3828151007087
831,15.3648679657868
832,15.377062724994
833,15.3642830174213
834,16.8039622071423
835,16.6702709135101
836,16.7938244758144
837,16.6526465989798
838,15.4862136231779
839,15.4655657174591
840,15.4838008548492
841,15.4656065628041
2,1, 1, 1, 0, 9, 0.00,60.00,Holiday        
824,19.620399477742
825,13.8594388713659
826,15.3975152848634
827,16.9303511788984
828,16.610761647259
829,15.5608955086072
830,15.218210309651
831,15.2190225000106
832,15.242968953709
833,15.1986718865812
834,16.867326673739
835,16.8269449857164
836,16.9505902811658
837,16.7401789331628
838,15.4110681717621
839,15.4115498169634
840,15.4391626825964
841,15.3884932718297
2,1, 1, 1, 0,10, 0.00,60.00,Holiday        
824,19.5109430262947
825,14.0418492452891
826,15.4062650463383
827,16.9735313383363
828,16.6392928965072
829,15.5863909689552
830,15.4562346548169
831,15.4500085956854
832,15.4662677279717
833,15.4371577780532
834,17.1088225181541
835,17.1075287738245
836,17.2403306522555
837,16.9800162015239
838,15.4711444366454
839,15.4737868716508
840,15.506910584995
841,15.4397924447778
2,1, 1, 1, 0,11, 0.00,60.00,Holiday        
824,19.4830107222479
825,14.3413501794942
826,15.3572422217095
827,16.9996039586527
828,16.7043083450545
829,15.5887464078003
830,15.4495013467646
831,15.4449554460259
832,15.4650010369343
833,15.4293838085477
834,17.3457628342533
835,17.3262170582781
836,17.5101259966875
837,17.1816254891602
838,15.4119610869217
839,15.4061934206905
840,15.4776769121228
841,15.3492866579351
2,1, 1, 1, 0,12, 0.00,60.00,Holiday        
824,19.5632920272728
825,14.4426867816719
826,15.2833051630265
827,17.004422229815
828,16.7643903754596
829,15.5964164992212
830,15.3280923970121
831,15.3139778738234
832,15.3810203274962
833,15.2934977306477
834,17.5099263729337
835,17.4564116801775
836,17.7482293429988
837,17.3362698096357
838,15.3299553424585
839,15.2953948091957
840,15.5202222261331
841,15.2249064272644
2,1, 1, 1, 0,13, 0.00,60.00,Holiday        
824,19.6340490982154
825,14.6083960544487
826,15.260477572334
827,17.0561027501793
828,16.8344842055305
829,15.6345532902237
830,15.5042247601488
831,15.4815225658759
832,15.5376538827785
833,15.4750640418336
834,17.7312467781634
835,17.6415933914948
836,18.1078867637195
837,17.5744960117718
838,15.3852930111247
839,15.3249063244329
840,15.7451623795234
841,15.2712708441037
2,1, 1, 1, 0,14, 0.00,60.00,Holiday        
824,19.6348524649551
825,14.8198016506213
826,15.3338042517616
827,17.1248908653771
828,16.8694671731321
829,15.6951486252197
830,15.5062502963579
831,15.4944977046366
832,15.5362884480441
833,15.4949771560149
834,17.8435744705942
835,17.7726251801648
836,18.226770544361
837,17.7666757562688
838,15.4716069431013
839,15.4277972072234
840,15.8476856735205
841,15.4272523941639
2,1, 1, 1, 0,15, 0.00,60.00,Holiday        
824,19.6685221550373
825,14.8194095685067
826,15.3749263033898
827,17.1609901575748
828,16.8937959166994
829,15.732633354836
830,15.4014038354832
831,15.3846553598424
832,15.4568516144839
833,15.4028591193858
834,17.8299624147386
835,17.7599534208849
836,18.1712491268053
837,17.8278525936985
838,15.4508406077085
839,15.404269664363
840,15.7927544142862
841,15.471807731665
2,1, 1, 1, 0,16, 0.00,60.00,Holiday        
824,19.738629009998
825,14.757510292744
826,15.3768246649304
827,17.1698331482175
828,16.9085459965346
829,15.7407252466074
830,15.4712454210801
831,15.4495964741161
832,15.4910102404187
833,15.4696565793658
834,17.680854910376
835,17.6067311174789
836,18.0022234766482
837,17.7575697532103
838,15.2906672550356
839,15.2387568884503
840,15.6155223221458
841,15.3852097362957
2,1, 1, 1, 0,17, 0.00,60.00,Holiday        
824,19.7648370504354
825,14.6648500314483
826,15.4949209218125
827,17.1457663079178
828,16.7910881424275
829,15.7138091290292
830,15.4414408800702
831,15.4306209333726
832,15.4646328324007
833,15.450953719042
834,17.4016800771264
835,17.3381781116501
836,17.6797010504392
837,17.4896073359961
838,15.5131032670923
839,15.4928125256772
840,15.536302472007
841,15.5025404366468
2,1, 1, 1, 0,18, 0.00,60.00,Holiday        
824,19.7533757326854
825,14.3316224754027
826,15.5351706252636
827,17.1196710173667
828,16.7225930691648
829,15.6674832045716
830,15.257074423586
831,15.2391682896043
832,15.2763131327051
833,15.2408878392195
834,17.2106898947867
835,17.1379802705979
836,17.3750229377759
837,17.1748196602439
838,15.5079072114392
839,15.4979358977581
840,15.5208857283523
841,15.4997199838401
2,1, 1, 1, 0,19, 0.00,60.00,Holiday        
824,19.7418777636906
825,14.1212662887314
826,15.4525753200557
827,17.0614585288063
828,16.6488715073643
829,15.5881768405303
830,15.3852734056342
831,15.3684525655019
832,15.3876130044993
833,15.3662370447493
834,16.9830814804794
835,16.9031919096309
836,17.09574061704