Program Version,EnergyPlus-Windows-64 8.0.0.007, YMD=2019.06.17 14:08
1,5,Environment Title[],Latitude[deg],Longitude[deg],Time Zone[],Elevation[m]
2,6,Day of Simulation[],Month[],Day of Month[],DST Indicator[1=yes 0=no],Hour[],StartMinute[],EndMinute[],DayType
3,3,Cumulative Day of Simulation[],Month[],Day of Month[],DST Indicator[1=yes 0=no],DayType  ! When Daily Meters Requested
4,2,Cumulative Days of Simulation[],Month[]  ! When Monthly Meters Requested
5,1,Cumulative Days of Simulation[] ! When Run Period Meters Requested
58,1,Electricity:Facility [J] !Hourly
1756,1,ElectricityNet:Facility [J] !Hourly
701,1,Gas:Facility [J] !Hourly
88,1,InteriorLights:Electricity [J] !Hourly
443,1,InteriorEquipment:Electricity [J] !Hourly
End of Data Dictionary
1,BUFFALO.NIAGARA.INTL.AP_NY_USA ANN HTG 99.6% CONDNS DB,  42.93, -78.73,  -5.00, 215.00
2,1, 1,21, 0, 1, 0.00,60.00,WinterDesignDay
58,77062805.5351985
88,0.0
443,0.0
701,14305162.0013882
1756,77062805.5351985
2,1, 1,21, 0, 2, 0.00,60.00,WinterDesignDay
58,86816110.0994447
88,0.0
443,0.0
701,16545972.9079725
1756,86816110.0994447
2,1, 1,21, 0, 3, 0.00,60.00,WinterDesignDay
58,83441551.1024926
88,0.0
443,0.0
701,15068202.5089528
1756,83441551.1024926
2,1, 1,21, 0, 4, 0.00,60.00,WinterDesignDay
58,122299823.380994
88,0.0
443,0.0
701,20903924.1685344
1756,122299823.380994
2,1, 1,21, 0, 5, 0.00,60.00,WinterDesignDay
58,116723517.434577
88,0.0
443,0.0
701,21812508.048033
1756,116723517.434577
2,1, 1,21, 0, 6, 0.00,60.00,WinterDesignDay
58,214463213.022988
88,0.0
443,0.0
701,15938923.1406724
1756,214463213.022988
2,1, 1,21, 0, 7, 0.00,60.00,WinterDesignDay
58,550653283.994949
88,0.0
443,0.0
701,14279558.4870644
1756,550653283.994949
2,1, 1,21, 0, 8, 0.00,60.00,WinterDesignDay
58,663993650.393876
88,0.0
443,0.0
701,360123463.567095
1756,663993650.393876
2,1, 1,21, 0, 9, 0.00,60.00,WinterDesignDay
58,558745221.145249
88,0.0
443,0.0
701,355545014.715165
1756,558745221.145249
2,1, 1,21, 0,10, 0.00,60.00,WinterDesignDay
58,529994864.026717
88,0.0
443,0.0
701,354174039.720246
1756,529994864.026717
2,1, 1,21, 0,11, 0.00,60.00,WinterDesignDay
58,512621540.107242
88,0.0
443,0.0
701,353439874.952956
1756,512621540.107242
2,1, 1,21, 0,12, 0.00,60.00,WinterDesignDay
58,499182040.197828
88,0.0
443,0.0
701,353019911.531877
1756,499182040.197828
2,1, 1,21, 0,13, 0.00,60.00,WinterDesignDay
58,488144519.089281
88,0.0
443,0.0
701,352723098.522709
1756,488144519.089281
2,1, 1,21, 0,14, 0.00,60.00,WinterDesignDay
58,478503344.696328
88,0.0
443,0.0
701,352475030.037229
1756,478503344.696328
2,1, 1,21, 0,15, 0.00,60.00,WinterDesignDay
58,470112122.902863
88,0.0
443,0.0
701,352245101.619539
1756,470112122.902863
2,1, 1,21, 0,16, 0.00,60.00,WinterDesignDay
58,462626917.559164
88,0.0
443,0.0
701,352028145.90827
1756,462626917.559164
2,1, 1,21, 0,17, 0.00,60.00,WinterDesignDay
58,455796606.544046
88,0.0
443,0.0
701,351825682.29317
1756,455796606.544046
2,1, 1,21, 0,18, 0.00,60.00,WinterDesignDay
58,478534013.040966
88,0.0
443,0.0
701,351614900.360543
1756,478534013.040966
2,1, 1,21, 0,19, 0.00,60.00,WinterDesignDay
58,404718259.586975
88,0.0
443,0.0
701,7212348.
1756,404718259.586975
2,1, 1,21, 0,20, 0.00,60.00,WinterDesignDay
58,432111073.32789
88,0.0
443,0.0
701,7212348.
1756,432111073.32789
2,1, 1,21, 0,21, 0.00,60.00,WinterDesignDay
58,296070164.265799
88,0.0
443,0.0
701,7212348.
1756,296070164.265799
2,1, 1,21, 0,22, 0.00,60.00,WinterDesignDay
58,432775432.8133
88,0.0
443,0.0
701,7212348.
1756,432775432.8133
2,1, 1,21, 0,23, 0.00,60.00,WinterDesignDay
58,43309559.8112851
88,0.0
443,0.0
701,7524583.95911554
1756,43309559.8112851
2,1, 1,21, 0,24, 0.00,60.00,WinterDesignDay
58,63922806.960466
88,0.0
443,0.0
701,9914643.05020058
1756,63922806.960466
1,BUFFALO.NIAGARA.INTL.AP_NY_USA ANN CLG .4% CONDNS DB=>MWB,  42.93, -78.73,  -5.00, 215.00
2,1, 7,21, 0, 1, 0.00,60.00,SummerDesignDay
58,505779498.28067
88,158309273.450227
443,224813060.552967
701,7212348.
1756,505779498.28067
2,1, 7,21, 0, 2, 0.00,60.00,SummerDesignDay
58,505578145.900367
88,158309273.450227
443,224813060.552967
701,7212348.
1756,505578145.900367
2,1, 7,21, 0, 3, 0.00,60.00,SummerDesignDay
58,477039883.115746
88,158309273.450227
443,224813060.552967
701,7212348.
1756,477039883.115746
2,1, 7,21, 0, 4, 0.00,60.00,SummerDesignDay
58,513144566.182158
88,158309273.450227
443,224813060.552967
701,7212348.
1756,513144566.182158
2,1, 7,21, 0, 5, 0.00,60.00,SummerDesignDay
58,502652475.79156
88,158309273.450227
443,224813060.552967
701,7212348.
1756,502652475.79156
2,1, 7,21, 0, 6, 0.00,60.00,SummerDesignDay
58,431879533.651884
88,132425969.970316
443,224813060.552967
701,7212348.
1756,431879533.651884
2,1, 7,21, 0, 7, 0.00,60.00,SummerDesignDay
58,578069834.527063
88,124693262.065756
443,224813060.552967
701,7212348.
1756,578069834.527063
2,1, 7,21, 0, 8, 0.00,60.00,SummerDesignDay
58,702992093.866357
88,124547812.705664
443,224813060.552967
701,7212348.
1756,702992093.866357
2,1, 7,21, 0, 9, 0.00,60.00,SummerDesignDay
58,715315205.970297
88,124547812.705664
443,224813060.552967
701,7212348.
1756,715315205.970297
2,1, 7,21, 0,10, 0.00,60.00,SummerDesignDay
58,715573261.585655
88,124547812.705664
443,224813060.552967
701,7212348.
1756,715573261.585655
2,1, 7,21, 0,11, 0.00,60.00,SummerDesignDay
58,723332976.060709
88,124547812.705664
443,224813060.552967
701,7212348.
1756,723332976.060709
2,1, 7,21, 0,12, 0.00,60.00,SummerDesignDay
58,712212279.413043
88,124547812.705664
443,224813060.552967
701,11769917.7597552
1756,712212279.413043
2,1, 7,21, 0,13, 0.00,60.00,SummerDesignDay
58,713311376.931482
88,124547812.705664
443,224813060.552967
701,26129535.1988229
1756,713311376.931482
2,1, 7,21, 0,14, 0.00,60.00,SummerDesignDay
58,730300003.579054
88,124547812.705664
443,224813060.552967
701,24844944.3782665
1756,730300003.579054
2,1, 7,21, 0,15, 0.00,60.00,SummerDesignDay
58,736138866.282425
88,124547812.705664
443,224813060.552967
701,17156129.3035651
1756,736138866.282425
2,1, 7,21, 0,16, 0.00,60.00,SummerDesignDay
58,734363129.736836
88,124547812.705664
443,224813060.552967
701,15920457.1604026
1756,734363129.736836
2,1, 7,21, 0,17, 0.00,60.00,SummerDesignDay
58,726078039.297144
88,124547812.705664
443,224813060.552967
701,16251134.325852
1756,726078039.297144
2,1, 7,21, 0,18, 0.00,60.00,SummerDesignDay
58,702299848.804454
88,124547812.705664
443,224813060.552967
701,15849619.629381
1756,702299848.804454
2,1, 7,21, 0,19, 0.00,60.00,SummerDesignDay
58,669666691.853522
88,125589174.048485
443,224813060.552967
701,11398481.8278672
1756,669666691.853522
2,1, 7,21, 0,20, 0.00,60.00,SummerDesignDay
58,658299562.827433
88,152964115.949703
443,224813060.552967
701,7212348.
1756,658299562.827433
2,1, 7,21, 0,21, 0.00,60.00,SummerDesignDay
58,676486991.154935
88,158309273.450227
443,224813060.552967
701,7212348.
1756,676486991.154935
2,1, 7,21, 0,22, 0.00,60.00,SummerDesignDay
58,690797490.432017
88,158309273.450227
443,224813060.552967
701,7212348.
1756,690797490.432017
2,1, 7,21, 0,23, 0.00,60.00,SummerDesignDay
58,492005608.429799
88,158309273.450227
443,224813060.552967
701,7212348.
1756,492005608.429798
2,1, 7,21, 0,24, 0.00,60.00,SummerDesignDay
58,498368858.87686
88,158309273.450227
443,224813060.552967
701,7212348.
1756,498368858.87686
1,Buffalo Niagara Intl Ap NY USA TMY3 WMO#=725280,  42.93, -78.73,  -5.00, 215.00
2,1, 1, 1, 0, 1, 0.00,60.00,Holiday        
58,109262700.451169
88,7915463.67251137
443,33399901.5013581
701,16043243.2327204
1756,109262700.451169
2,1, 1, 1, 0, 2, 0.00,60.00,Holiday        
58,99394463.2280349
88,7915463.67251137
443,33399901.5013581
701,15529654.5626405
1756,99394463.2280349
2,1, 1, 1, 0, 3, 0.00,60.00,Holiday        
58,89163531.1190294
88,7915463.67251137
443,33399901.5013581
701,12783324.3216946
1756,89163531.1190294
2,1, 1, 1, 0, 4, 0.00,60.00,Holiday        
58,101842888.077284
88,7915463.67251137
443,33399901.5013581
701,15561792.7404727
1756,101842888.077284
2,1, 1, 1, 0, 5, 0.00,60.00,Holiday        
58,94486958.4245728
88,7915463.67251137
443,33399901.5013581
701,14669777.8116023
1756,94486958.4245728
2,1, 1, 1, 0, 6, 0.00,60.00,Holiday        
58,84525159.3525824
88,7915463.67251137
443,33399901.5013581
701,12340530.770348
1756,84525159.3525823
2,1, 1, 1, 0, 7, 0.00,60.00,Holiday        
58,112837419.237297
88,6825706.96067657
443,41385398.9087341
701,15221298.5859352
1756,112837419.237297
2,1, 1, 1, 0, 8, 0.00,60.00,Holiday        
58,103126150.4079
88,6781231.49828571
443,41385398.9087341
701,14577273.570897
1756,103126150.4079
2,1, 1, 1, 0, 9, 0.00,60.00,Holiday        
58,70667674.5331405
88,6017039.30052964
443,41385398.9087341
701,12550052.7068076
1756,70667674.5331405
2,1, 1, 1, 0,10, 0.00,60.00,Holiday        
58,73021920.8030089
88,5456319.86581645
443,41385398.9087341
701,14704968.3931994
1756,73021920.8030089
2,1, 1, 1, 0,11, 0.00,60.00,Holiday        
58,66374153.090217
88,5418026.09378785
443,41385398.9087341
701,12877107.6201794
1756,66374153.090217
2,1, 1, 1, 0,12, 0.00,60.00,Holiday        
58,56469233.6532213
88,5370038.36600498
443,41385398.9087341
701,10072766.6385083
1756,56469233.6532213
2,1, 1, 1, 0,13, 0.00,60.00,Holiday        
58,60463232.9820949
88,5370038.36600498
443,41385398.9087341
701,10815690.6576315
1756,60463232.9820949
2,1, 1, 1, 0,14, 0.00,60.00,Holiday        
58,57073462.7521236
88,5379944.88617218
443,41385398.9087341
701,9022655.23834999
1756,57073462.7521236
2,1, 1, 1, 0,15, 0.00,60.00,Holiday        
58,54802737.6266643
88,5424298.28903434
443,41385398.9087341
701,8217518.58133286
1756,54802737.6266643
2,1, 1, 1, 0,16, 0.00,60.00,Holiday        
58,61517420.0220607
88,5570023.02782062
443,41385398.9087341
701,9200246.35588611
1756,61517420.0220607
2,1, 1, 1, 0,17, 0.00,60.00,Holiday        
58,91848245.0248815
88,6569915.00829823
443,41385398.9087341
701,9865773.76351737
1756,91848245.0248815
2,1, 1, 1, 0,18, 0.00,60.00,Holiday        
58,104062035.734272
88,6825706.96067657
443,41385398.9087341
701,10392283.1084343
1756,104062035.734272
2,1, 1, 1, 0,19, 0.00,60.00,Holiday        
58,108826464.33659
88,7915463.67251137
443,33399901.5013581
701,13709043.7833804
1756,108826464.33659
2,1, 1, 1, 0,20, 0.00,60.00,Holiday        
58,117142532.460004
88,7915463.67251137
443,33399901.5013581
701,14369359.89623
1756,117142532.460004
2,1, 1, 1, 0,21, 0.00,60.00,Holiday        
58,106846675.070257
88,7915463.67251137
443,33399901.5013581
701,12470598.8418614
1756,106846675.070257
2,1, 1, 1, 0,22, 0.00,60.00,Holiday        
58,113152464.963668
88,7915463.67251137
443,33399901.5013581
701,15567814.0704991
1756,113152464.963668
2,1, 1, 1, 0,23, 0.00,60.00,Holiday        
58,125976065.327171
88,7915463.67251137
443,33399901.5013581
701,16192075.2655787
1756,125976065.327171
2,1, 1, 1, 0,24, 0.00,60.00,Holiday        
58,116560156.777101
88,7915463.67251137
443,33399901.5013581
701,13782040.9263791
1756,116560156.777101
2,2, 1, 2, 0, 1, 0.00,60.00,Monday         
58,119768259.830206
88,7915463.67251137
443,44533202.0018108
701,17077084.806638
1756,119768259.830206
2,2, 1, 2, 0, 2, 0.00,60.00,Monday         
58,131348898.474608
88,7915463.67251137
443,44533202.0018108
701,16890264.9559891
1756,131348898.474608
2,2, 1, 2, 0, 3, 0.00,60.00,Monday         
58,119019961.400365
88,7915463.67251137
443,44533202.0018108
701,13793349.2133174
1756,119019961.400365
2,2, 1, 2, 0, 4, 0.00,60.00,Monday         
58,127035104.129341
88,7915463.67251137
443,44533202.0018108
701,17844683.7271066
1756,127035104.129341
2,2, 1, 2, 0, 5, 0.00,60.00,Monday         
58,128903121.811381
88,7915463.67251137
443,44533202.0018108
701,17344981.1112015
1756,128903121.811381
2,2, 1, 2, 0, 6, 0.00,60.00,Monday         
58,268723502.592802
88,15830927.3450227
443,44533202.0018108
701,11305505.2660674
1756,268723502.592802
2,2, 1, 2, 0, 7, 0.00,60.00,Monday         
58,624250659.952677
88,13651413.9213531
443,55180531.8783121
701,8009932.14793521
1756,624250659.952677
2,2, 1, 2, 0, 8, 0.00,60.00,Monday         
58,714322455.360652
88,40687388.9897142
443,95796493.4167736
701,171928302.118032
1756,714322455.360652
2,2, 1, 2, 0, 9, 0.00,60.00,Monday         
58,669102208.618299
88,108306707.409533
443,204227663.759169
701,168998843.17195
1756,669102208.618299
2,2, 1, 2, 0,10, 0.00,60.00,Monday         
58,562559074.363717
88,98407895.5874139
443,174055806.616312
701,160932298.427816
1756,562559074.363717
2,2, 1, 2, 0,11, 0.00,60.00,Monday         
58,507626769.074588
88,96898447.0721026
443,167093070.352576
701,156022366.89524
1756,507626769.074588
2,2, 1, 2, 0,12, 0.00,60.00,Monday         
58,475405218.6873
88,96660690.5880898
443,174055806.616312
701,162826927.547278
1756,475405218.6873
2,2, 1, 2, 0,13, 0.00,60.00,Monday         
58,505666626.854015
88,96660690.5880898
443,177667514.306075
701,166946704.815772
1756,505666626.854015
2,2, 1, 2, 0,14, 0.00,60.00,Monday         
58,445175678.639408
88,96720129.709093
443,179858086.836092
701,163165664.697682
1756,445175678.639408
2,2, 1, 2, 0,15, 0.00,60.00,Monday         
58,418197303.587536
88,97637369.2026182
443,167093070.352576
701,153416149.367432
1756,418197303.587536
2,2, 1, 2, 0,16, 0.00,60.00,Monday         
58,417948419.005099
88,101853328.195989
443,167093070.352576
701,150566575.926753
1756,417948419.005099
2,2, 1, 2, 0,17, 0.00,60.00,Monday         
58,444690936.037891
88,117768257.183675
443,177537174.74818
701,157071027.200673
1756,444690936.037891
2,2, 1, 2, 0,18, 0.00,60.00,Monday         
58,470148297.404362
88,68257069.6067657
443,140923939.573165
701,149176140.668272
1756,470148297.404362
2,2, 1, 2, 0,19, 0.00,60.00,Monday         
58,385414205.205697
88,40954241.7640594
443,69106004.4057846
701,147487178.366578
1756,385414205.205697
2,2, 1, 2, 0,20, 0.00,60.00,Monday         
58,365750918.893356
88,40954241.7640594
443,59822356.0541363
701,148262821.921435
1756,365750918.893356
2,2, 1, 2, 0,21, 0.00,60.00,Monday         
58,357567807.77363
88,27302827.8427063
443,59822356.0541363
701,159994189.630026
1756,357567807.77363
2,2, 1, 2, 0,22, 0.00,60.00,Monday         
58,357581574.992449
88,27302827.8427063
443,55180531.8783121
701,158625332.527691
1756,357581574.992449
2,2, 1, 2, 0,23, 0.00,60.00,Monday         
58,98645121.1003389
88,13651413.9213531
443,55180531.8783121
701,7212348.
1756,98645121.1003388
2,2, 1, 2, 0,24, 0.00,60.00,Monday         
58,91813964.4766817
88,6825706.96067657
443,55180531.8783121
701,7212348.
1756,91813964.4766817
2,3, 1, 3, 0, 1, 0.00,60.00,Tuesday        
58,72153007.2674801
88,7915463.67251137
443,44533202.0018108
701,7212348.
1756,72153007.2674801
2,3, 1, 3, 0, 2, 0.00,60.00,Tuesday        
58,72153142.9157607
88,7915463.67251137
443,44533202.0018108
701,7212348.
1756,72153142.9157607
2,3, 1, 3, 0, 3, 0.00,60.00,Tuesday        
58,72153142.9157607
88,7915463.67251137
443,44533202.0018108
701,7212348.
1756,72153142.9157607
2,3, 1, 3, 0, 4, 0.00,60.00,Tuesday        
58,72153142.9157607
88,7915463.67251137
443,44533202.0018108
701,7212348.
1756,72153142.9157607
2,3, 1, 3, 0, 5, 0.00,60.00,Tuesday        
58,72153142.9157607
88,7915463.67251137
443,44533202.0018108
701,7212348.
1756,72153142.9157607
2,3, 1, 3, 0, 6, 0.00,60.00,Tuesday        
58,159107295.291595
88,15830927.3450227
443,44533202.0018108
701,7212348.
1756,159107295.291595
2,3, 1, 3, 0, 7, 0.00,60.00,Tuesday        
58,400006926.527018
88,13651413.9213531
443,55180531.8783121
701,7212348.
1756,400006926.527017
2,3, 1, 3, 0, 8, 0.00,60.00,Tuesday        
58,526105536.546606
88,40687388.9897142
443,95796493.4167736
701,201685409.400679
1756,526105536.546606
2,3, 1, 3, 0, 9, 0.00,60.00,Tuesday        
58,522430933.71089
88,108306707.409533
443,204227663.759169
701,206663273.308734
1756,522430933.71089
2,3, 1, 3, 0,10, 0.00,60.00,Tuesday        
58,440609094.430568
88,98041433.7593106
443,174055806.616312
701,210703923.868858
1756,440609094.430568
2,3, 1, 3, 0,11, 0.00,60.00,Tuesday        
58,408508553.515223
88,96839007.9510994
443,167093070.352576
701,210926142.296279
1756,408508553.515223
2,3, 1, 3, 0,12, 0.00,60.00,Tuesday        
58,391601832.454211
88,96660690.5880898
443,174055806.616312
701,218381996.703046
1756,391601832.454211
2,3, 1, 3, 0,13, 0.00,60.00,Tuesday        
58,425951947.001888
88,96660690.5880898
443,177667514.306075
701,225595104.890798
1756,425951947.001888
2,3, 1, 3, 0,14, 0.00,60.00,Tuesday        
58,390829482.498674
88,96660690.5880898
443,179858086.836092
701,229877119.539399
1756,390829482.498674
2,3, 1, 3, 0,15, 0.00,60.00,Tuesday        
58,368486263.778612
88,97778056.6852721
443,167093070.352576
701,224548780.132683
1756,368486263.778612
2,3, 1, 3, 0,16, 0.00,60.00,Tuesday        
58,391051239.737171
88,105929129.44427
443,167093070.352576
701,221720075.766464
1756,391051239.737171
2,3, 1, 3, 0,17, 0.00,60.00,Tuesday        
58,423544928.235109
88,117827696.304678
443,177537174.74818
701,235558575.431771
1756,423544928.235109
2,3, 1, 3, 0,18, 0.00,60.00,Tuesday        
58,428015518.607462
88,68257069.6067657
443,140923939.573165
701,232530418.101325
1756,428015518.607462
2,3, 1, 3, 0,19, 0.00,60.00,Tuesday        
58,358396159.053208
88,40954241.7640594
443,69106004.4057846
701,231061505.705763
1756,358396159.053208
2,3, 1, 3, 0,20, 0.00,60.00,Tuesday        
58,336218261.596154
88,40954241.7640594
443,59822356.0541363
701,236984916.834087
1756,336218261.596154
2,3, 1, 3, 0,21, 0.00,60.00,Tuesday        
58,327683663.500426
88,27302827.8427063
443,59822356.0541363
701,236411300.335189
1756,327683663.500426
2,3, 1, 3, 0,22, 0.00,60.00,Tuesday        
58,329483542.345166
88,27302827.8427063
443,55180531.8783121
701,245925647.514041
1756,329483542.345166
2,3, 1, 3, 0,23, 0.00,60.00,Tuesday        
58,98645121.1003389
88,13651413.9213531
443,55180531.8783121
701,7212348.
1756,98645121.1003388
2,3, 1, 3, 0,24, 0.00,60.00,Tuesday        
58,91813964.4766817
88,6825706.96067657
443,55180531.8783121
701,7212348.
1756,91813964.4766817
2,4, 1, 4, 0, 1, 0.00,60.00,Wednesday      
58,72153007.2674801
88,7915463.67251137
443,44533202.0018108
701,7212348.
1756,72153007.2674801
2,4, 1, 4, 0, 2, 0.00,60.00,Wednesday      
58,72153142.9157607
88,7915463.67251137
443,44533202.0018108
701,7212348.
1756,72153142.9157607
2,4, 1, 4, 0, 3, 0.00,60.00,Wednesday      
58,72153142.9157607
88,7915463.67251137
443,44533202.0018108
701,7212348.
1756,72153142.9157607
2,4, 1, 4, 0, 4, 0.00,60.00,Wednesday      
58,72153142.9157607
88,7915463.67251137
443,44533202.0018108
701,7212348.
1756,72153142.9157607
2,4, 1, 4, 0, 5, 0.00,60.00,Wednesday      
58,76383184.4869956
88,7915463.67251137
443,44533202.0018108
701,8373936.6220466
1756,76383184.4869956
2,4, 1, 4, 0, 6, 0.00,60.00,Wednesday      
58,186451710.33088
88,15830927.3450227
443,44533202.0018108
701,7717742.50375225
1756,186451710.33088
2,4, 1, 4, 0, 7, 0.00,60.00,Wednesday      
58,405932593.44373
88,13651413.9213531
443,55180531.8783121
701,7212348.
1756,405932593.44373
2,4, 1, 4, 0, 8, 0.00,60.00,Wednesday      
58,530802049.714768
88,40031534.6384911
443,95796493.4167736
701,316278554.757266
1756,530802049.714768
2,4, 1, 4, 0, 9, 0.00,60.00,Wednesday      
58,513934662.509663
88,103462494.171773
443,204227663.759169
701,310838444.438326
1756,513934662.509663
2,4, 1, 4, 0,10, 0.00,60.00,Wednesday      
58,395535430.885816
88,97825488.9842877
443,174055806.616312
701,273770548.481203
1756,395535430.885816
2,4, 1, 4, 0,11, 0.00,60.00,Wednesday      
58,346063258.761784
88,96720129.709093
443,167093070.352576
701,239030455.837362
1756,346063258.761784
2,4, 1, 4, 0,12, 0.00,60.00,Wednesday      
58,346486651.778984
88,96660690.5880898
443,174055806.616312
701,227567519.689284
1756,346486651.778984
2,4, 1, 4, 0,13, 0.00,60.00,Wednesday      
58,393489476.573499
88,96660690.5880898
443,177667514.306075
701,223910560.725871
1756,393489476.573499
2,4, 1, 4, 0,14, 0.00,60.00,Wednesday      
58,342903872.065402
88,96660690.5880898
443,179858086.836092
701,217888092.239377
1756,342903872.065402
2,4, 1, 4, 0,15, 0.00,60.00,Wednesday      
58,325971622.607864
88,97167844.8355318
443,167093070.352576
701,205754183.438116
1756,325971622.607864
2,4, 1, 4, 0,16, 0.00,60.00,Wednesday      
58,343604154.406127
88,100300256.262698
443,167093070.352576
701,210615693.030847
1756,343604154.406127
2,4, 1, 4, 0,17, 0.00,60.00,Wednesday      
58,396520141.064997
88,116676519.61878
443,177537174.74818
701,222906272.951612
1756,396520141.064997
2,4, 1, 4, 0,18, 0.00,60.00,Wednesday      
58,402777870.108941
88,68257069.6067657
443,140923939.573165
701,220817362.433845
1756,402777870.108941
2,4, 1, 4, 0,19, 0.00,60.00,Wednesday      
58,323280124.743004
88,40954241.7640594
443,69106004.4057846
701,223437562.965933
1756,323280124.743004
2,4, 1, 4, 0,20, 0.00,60.00,Wednesday      
58,307817979.058864
88,40954241.7640594
443,59822356.0541363
701,227725728.741741
1756,307817979.058864
2,4, 1, 4, 0,21, 0.00,60.00,Wednesday      
58,304990602.864433
88,27302827.8427063
443,59822356.0541363
701,229279263.258651
1756,304990602.864433
2,4, 1, 4, 0,22, 0.00,60.00,Wednesday      
58,303848523.255432
88,27302827.8427063
443,55180531.8783121
701,225760572.859157
1756,303848523.255432
2,4, 1, 4, 0,23, 0.00,60.00,Wednesday      
58,98645121.1003389
88,13651413.9213531
443,55180531.8783121
701,7212348.
1756,98645121.1003388
2,4, 1, 4, 0,24, 0.00,60.00,Wednesday      
58,91813964.4766817
88,6825706.96067657
443,55180531.8783121
701,7212348.
1756,91813964.4766817
2,5, 1, 5, 0, 1, 0.00,60.00,Thursday       
58,72153007.2674801
88,7915463.67251137
443,44533202.0018108
701,7212348.
1756,72153007.2674801
2,5, 1, 5, 0, 2, 0.00,60.00,Thursday       
58,72153142.9157607
88,7915463.67251137
443,44533202.0018108
701,7212348.
1756,72153142.9157607
2,5, 1, 5, 0, 3, 0.00,60.00,Thursday       
58,72153142.9157607
88,7915463.67251137
443,44533202.0018108
701,7212348.
1756,72153142.9157607
2,5, 1, 5, 0, 4, 0.00,60.00,Thursday       
58,72153142.9157607
88,7915463.67251137
443,44533202.0018108
701,7212348.
1756,72153142.9157607
2,5, 1, 5, 0, 5, 0.00,60.00,Thursday       
58,72153142.9157607
88,7915463.67251137
443,44533202.0018108
701,7212348.
1756,72153142.9157607
2,5, 1, 5, 0, 6, 0.00,60.00,Thursday       
58,175287166.356505
88,15830927.3450227
443,44533202.0018108
701,7386522.38978817
1756,175287166.356505
2,5, 1, 5, 0, 7, 0.00,60.00,Thursday       
58,359532318.148661
88,13651413.9213531
443,55180531.8783121
701,7212348.
1756,359532318.148661
2,5, 1, 5, 0, 8, 0.00,60.00,Thursday       
58,486336868.582841
88,40279464.6682958
443,95796493.4167736
701,230095809.514434
1756,486336868.582841
2,5, 1, 5, 0, 9, 0.00,60.00,Thursday       
58,494629799.280095
88,103764679.150534
443,204227663.759169
701,226891807.4255
1756,494629799.280095
2,5, 1, 5, 0,10, 0.00,60.00,Thursday       
58,390778833.686256
88,97421407.1491983
443,174055806.616312
701,213401830.558697
1756,390778833.686256
2,5, 1, 5, 0,11, 0.00,60.00,Thursday       
58,339417536.891549
88,96660690.5880898
443,167093070.352576
701,190111599.341393
1756,339417536.891549
2,5, 1, 5, 0,12, 0.00,60.00,Thursday       
58,338694752.624522
88,96660690.5880898
443,174055806.616312
701,186066060.732138
1756,338694752.624522
2,5, 1, 5, 0,13, 0.00,60.00,Thursday       
58,386514326.620215
88,96660690.5880898
443,177667514.306075
701,173155809.506931
1756,386514326.620215
2,5, 1, 5, 0,14, 0.00,60.00,Thursday       
58,333204465.407761
88,96660690.5880898
443,179858086.836092
701,164711240.504328
1756,333204465.407762
2,5, 1, 5, 0,15, 0.00,60.00,Thursday       
58,313544864.613374
88,96839007.9510994
443,167093070.352576
701,164162861.82109
1756,313544864.613374
2,5, 1, 5, 0,16, 0.00,60.00,Thursday       
58,317562177.01628
88,98116725.6084736
443,167093070.352576
701,173452861.893755
1756,317562177.01628
2,5, 1, 5, 0,17, 0.00,60.00,Thursday       
58,362021222.154644
88,111415246.7962
443,177537174.74818
701,191927416.726031
1756,362021222.154644
2,5, 1, 5, 0,18, 0.00,60.00,Thursday       
58,378199063.082184
88,68257069.6067657
443,140923939.573165
701,201469435.589596
1756,378199063.082184
2,5, 1, 5, 0,19, 0.00,60.00,Thursday       
58,299756365.287011
88,40954241.7640594
443,69106004.4057846
701,216678175.385151
1756,299756365.287011
2,5, 1, 5, 0,20, 0.00,60.00,Thursday       
58,285172955.489616
88,40954241.7640594
443,59822356.0541363
701,225503400.09783
1756,285172955.489616
2,5, 1, 5, 0,21, 0.00,60.00,Thursday       
58,279728437.9884
88,27302827.8427063
443,59822356.0541363
701,225506026.036238
1756,279728437.9884
2,5, 1, 5, 0,22, 0.00,60.00,Thursday       
58,278667437.340116
88,27302827.8427063
443,55180531.8783121
701,230112609.789116
1756,278667437.340116
2,5, 1, 5, 0,23, 0.00,60.00,Thursday       
58,98645121.1003389
88,13651413.9213531
443,55180531.8783121
701,7212348.
1756,98645121.1003388
2,5, 1, 5, 0,24, 0.00,60.00,Thursday       
58,91813964.4766817
88,6825706.96067657
443,55180531.8783121
701,7212348.
1756,91813964.4766817
2,6, 1, 6, 0, 1, 0.00,60.00,Friday         
58,72153007.2674801
88,7915463.67251137
443,44533202.0018108
701,7212348.
1756,72153007.2674801
2,6, 1, 6, 0, 2, 0.00,60.00,Friday         
58,72153142.9157607
88,7915463.67251137
443,44533202.0018108
701,7212348.
1756,72153142.9157607
2,6, 1, 6, 0, 3, 0.00,60.00,Friday         
58,72153142.9157607
88,7915463.67251137
443,44533202.0018108
701,7212348.
1756,72153142.9157607
2,6, 1, 6, 0, 4, 0.00,60.00,Friday         
58,72153142.9157607
88,7915463.67251137
443,44533202.0018108
701,7212348.
1756,72153142.9157607
2,6, 1, 6, 0, 5, 0.00,60.00,Friday         
58,72153142.9157607
88,7915463.67251137
443,44533202.0018108
701,7212348.
1756,72153142.9157607
2,6, 1, 6, 0, 6, 0.00,60.00,Friday         
58,159588054.551419
88,15830927.3450227
443,44533202.0018108
701,7455009.41683395
1756,159588054.551419
2,6, 1, 6, 0, 7, 0.00,60.00,Friday         
58,358535072.034916
88,13651413.9213531
443,55180531.8783121
701,7212348.
1756,358535072.034916
2,6, 1, 6, 0, 8, 0.00,60.00,Friday         
58,483445196.560382
88,39915542.8925918
443,95796493.4167736
701,309293044.976992
1756,483445196.560382
2,6, 1, 6, 0, 9, 0.00,60.00,Friday         
58,480498575.025802
88,102079557.007829
443,204227663.759169
701,292902781.256491
1756,480498575.025802
2,6, 1, 6, 0,10, 0.00,60.00,Friday         
58,363360575.328406
88,97750234.1602611
443,174055806.616312
701,246345692.864448
1756,363360575.328406
2,6, 1, 6, 0,11, 0.00,60.00,Friday         
58,325227441.368089
88,96660690.5880898
443,167093070.352576
701,213556550.716605
1756,325227441.368089
2,6, 1, 6, 0,12, 0.00,60.00,Friday         
58,325560578.699331
88,96660690.5880898
443,174055806.616312
701,197650937.578015
1756,325560578.699331
2,6, 1, 6, 0,13, 0.00,60.00,Friday         
58,374722081.648097
88,96660690.5880898
443,177667514.306075
701,184054931.859772
1756,374722081.648097
2,6, 1, 6, 0,14, 0.00,60.00,Friday         
58,322427562.543295
88,96660690.5880898
443,179858086.836092
701,170003648.201017
1756,322427562.543295
2,6, 1, 6, 0,15, 0.00,60.00,Friday         
58,302158536.895592
88,96876637.8314551
443,167093070.352576
701,152267219.4307
1756,302158536.895592
2,6, 1, 6, 0,16, 0.00,60.00,Friday         
58,306026200.844121
88,100809607.581657
443,167093070.352576
701,144922875.428809
1756,306026200.844121
2,6, 1, 6, 0,17, 0.00,60.00,Friday         
58,354518798.981063
88,118786954.274457
443,177537174.74818
701,162761495.435198
1756,354518798.981063
2,6, 1, 6, 0,18, 0.00,60.00,Friday         
58,358839780.090959
88,68257069.6067657
443,140923939.573165
701,169170899.950132
1756,358839780.090959
2,6, 1, 6, 0,19, 0.00,60.00,Friday         
58,273081110.362677
88,40954241.7640594
443,69106004.4057846
701,174973450.267146
1756,273081110.362677
2,6, 1, 6, 0,20, 0.00,60.00,Friday         
58,261073737.731501
88,40954241.7640594
443,59822356.0541363
701,172688482.972306
1756,261073737.731501
2,6, 1, 6, 0,21, 0.00,60.00,Friday         
58,251771485.729431
88,27302827.8427063
443,59822356.0541363
701,155318960.834681
1756,251771485.729431
2,6, 1, 6, 0,22, 0.00,60.00,Friday         
58,249928930.20076
88,27302827.8427063
443,55180531.8783121
701,149265098.236427
1756,249928930.20076
2,6, 1, 6, 0,23, 0.00,60.00,Friday         
58,98645121.1003389
88,13651413.9213531
443,55180531.8783121
701,7212348.
1756,98645121.1003388
2,6, 1, 6, 0,24, 0.00,60.00,Friday         
58,91813964.4766817
88,6825706.96067657
443,55180531.8783121
701,7212348.
1756,91813964.4766817
2,7, 1, 7, 0, 1, 0.00,60.00,Saturday       
58,60849337.0902863
88,7915463.67251137
443,33399901.5013581
701,7212348.
1756,60849337.0902863
2,7, 1, 7, 0, 2, 0.00,60.00,Saturday       
58,60849436.1179892
88,7915463.67251137
443,33399901.5013581
701,7212348.
1756,60849436.1179892
2,7, 1, 7, 0, 3, 0.00,60.00,Saturday       
58,60849436.1179892
88,7915463.67251137
443,33399901.5013581
701,7212348.
1756,60849436.1179892
2,7, 1, 7, 0, 4, 0.00,60.00,Saturday       
58,60849436.1179892
88,7915463.67251137
443,33399901.5013581
701,7212348.
1756,60849436.1179892
2,7, 1, 7, 0, 5, 0.00,60.00,Saturday       
58,60849436.1179892
88,7915463.67251137
443,33399901.5013581
701,7212348.
1756,60849436.1179892
2,7, 1, 7, 0, 6, 0.00,60.00,Saturday       
58,100017529.227622
88,7915463.67251137
443,33399901.5013581
701,7212348.
1756,100017529.227622
2,7, 1, 7, 0, 7, 0.00,60.00,Saturday       
58,281704832.76755
88,13651413.9213531
443,55180531.8783121
701,7212348.
1756,281704832.76755
2,7, 1, 7, 0, 8, 0.00,60.00,Saturday       
58,343217824.663088
88,13651413.9213531
443,73747828.5816088
701,105668282.92753
1756,343217824.663088
2,7, 1, 7, 0, 9, 0.00,60.00,Saturday       
58,306148848.084045
88,36635934.5661382
443,85222049.4632748
701,100518402.132999
1756,306148848.084045
2,7, 1, 7, 0,10, 0.00,60.00,Saturday       
58,277078614.566187
88,32628309.3684303
443,93345241.7709671
701,112453551.615787
1756,277078614.566187
2,7, 1, 7, 0,11, 0.00,60.00,Saturday       
58,225837169.510556
88,32220230.1960299
443,89863873.6390989
701,122709582.730459
1756,225837169.510556
2,7, 1, 7, 0,12, 0.00,60.00,Saturday       
58,235536897.228267
88,32220230.1960299
443,97987065.9467912