Program Version,EnergyPlus-Windows-64 8.0.0.008, YMD=2018.10.24 10:58
1,5,Environment Title[],Latitude[deg],Longitude[deg],Time Zone[],Elevation[m]
2,6,Day of Simulation[],Month[],Day of Month[],DST Indicator[1=yes 0=no],Hour[],StartMinute[],EndMinute[],DayType
3,3,Cumulative Day of Simulation[],Month[],Day of Month[],DST Indicator[1=yes 0=no],DayType  ! When Daily Meters Requested
4,2,Cumulative Days of Simulation[],Month[]  ! When Monthly Meters Requested
5,1,Cumulative Days of Simulation[] ! When Run Period Meters Requested
58,1,Electricity:Facility [J] !Hourly
1756,1,ElectricityNet:Facility [J] !Hourly
701,1,Gas:Facility [J] !Hourly
88,1,InteriorLights:Electricity [J] !Hourly
443,1,InteriorEquipment:Electricity [J] !Hourly
End of Data Dictionary
1,MIAMI INTL AP ANN HTG 99.6% CONDNS DB,  37.62,-122.40,  -8.00,   2.00
2,1, 1,21, 0, 1, 0.00,60.00,WinterDesignDay
58,19508054.2047083
88,0.0
443,0.0
701,4597200.
1756,19508054.2047083
2,1, 1,21, 0, 2, 0.00,60.00,WinterDesignDay
58,19508054.2047083
88,0.0
443,0.0
701,4597200.
1756,19508054.2047083
2,1, 1,21, 0, 3, 0.00,60.00,WinterDesignDay
58,19508054.2047083
88,0.0
443,0.0
701,4597200.
1756,19508054.2047083
2,1, 1,21, 0, 4, 0.00,60.00,WinterDesignDay
58,19508054.2047083
88,0.0
443,0.0
701,4597200.
1756,19508054.2047083
2,1, 1,21, 0, 5, 0.00,60.00,WinterDesignDay
58,19508054.2047083
88,0.0
443,0.0
701,4597200.
1756,19508054.2047083
2,1, 1,21, 0, 6, 0.00,60.00,WinterDesignDay
58,47176452.2416199
88,0.0
443,0.0
701,4723513.30812701
1756,47176452.2416199
2,1, 1,21, 0, 7, 0.00,60.00,WinterDesignDay
58,310918111.410383
88,0.0
443,0.0
701,4719764.40119188
1756,310918111.410383
2,1, 1,21, 0, 8, 0.00,60.00,WinterDesignDay
58,500132806.21125
88,0.0
443,0.0
701,4597200.
1756,500132806.21125
2,1, 1,21, 0, 9, 0.00,60.00,WinterDesignDay
58,437178049.422557
88,0.0
443,0.0
701,4597200.
1756,437178049.422557
2,1, 1,21, 0,10, 0.00,60.00,WinterDesignDay
58,417937783.13797
88,0.0
443,0.0
701,4597200.
1756,417937783.13797
2,1, 1,21, 0,11, 0.00,60.00,WinterDesignDay
58,407646476.947283
88,0.0
443,0.0
701,4597200.
1756,407646476.947283
2,1, 1,21, 0,12, 0.00,60.00,WinterDesignDay
58,400003530.442481
88,0.0
443,0.0
701,4597200.
1756,400003530.442481
2,1, 1,21, 0,13, 0.00,60.00,WinterDesignDay
58,393863986.214906
88,0.0
443,0.0
701,4597200.
1756,393863986.214906
2,1, 1,21, 0,14, 0.00,60.00,WinterDesignDay
58,388561396.851623
88,0.0
443,0.0
701,4597200.
1756,388561396.851623
2,1, 1,21, 0,15, 0.00,60.00,WinterDesignDay
58,384085199.91753
88,0.0
443,0.0
701,8669807.98007738
1756,384085199.91753
2,1, 1,21, 0,16, 0.00,60.00,WinterDesignDay
58,379983518.537521
88,0.0
443,0.0
701,4597200.
1756,379983518.537521
2,1, 1,21, 0,17, 0.00,60.00,WinterDesignDay
58,376166556.273156
88,0.0
443,0.0
701,4597200.
1756,376166556.273156
2,1, 1,21, 0,18, 0.00,60.00,WinterDesignDay
58,394937058.63411
88,0.0
443,0.0
701,4597200.
1756,394937058.63411
2,1, 1,21, 0,19, 0.00,60.00,WinterDesignDay
58,299197972.056472
88,0.0
443,0.0
701,4597200.
1756,299197972.056472
2,1, 1,21, 0,20, 0.00,60.00,WinterDesignDay
58,328016103.492905
88,0.0
443,0.0
701,4597200.
1756,328016103.492905
2,1, 1,21, 0,21, 0.00,60.00,WinterDesignDay
58,231368114.470809
88,0.0
443,0.0
701,4597200.
1756,231368114.470809
2,1, 1,21, 0,22, 0.00,60.00,WinterDesignDay
58,334516430.82476
88,0.0
443,0.0
701,4597200.
1756,334516430.82476
2,1, 1,21, 0,23, 0.00,60.00,WinterDesignDay
58,36385097.1211066
88,0.0
443,0.0
701,4597200.
1756,36385097.1211066
2,1, 1,21, 0,24, 0.00,60.00,WinterDesignDay
58,29825528.2047083
88,0.0
443,0.0
701,4597200.
1756,29825528.2047083
1,MIAMI INTL AP ANN CLG .4% CONDNS DB=>MWB,  37.62,-122.40,  -8.00,   2.00
2,1, 7,21, 0, 1, 0.00,60.00,SummerDesignDay
58,527844873.086515
88,158309273.450227
443,224813060.552967
701,4597200.
1756,527844873.086516
2,1, 7,21, 0, 2, 0.00,60.00,SummerDesignDay
58,529117196.24795
88,158309273.450227
443,224813060.552967
701,4597200.
1756,529117196.24795
2,1, 7,21, 0, 3, 0.00,60.00,SummerDesignDay
58,490311471.260921
88,158309273.450227
443,224813060.552967
701,4597200.
1756,490311471.260921
2,1, 7,21, 0, 4, 0.00,60.00,SummerDesignDay
58,533663616.629589
88,158309273.450227
443,224813060.552967
701,4597200.
1756,533663616.629589
2,1, 7,21, 0, 5, 0.00,60.00,SummerDesignDay
58,528888459.02946
88,158309273.450227
443,224813060.552967
701,4597200.
1756,528888459.02946
2,1, 7,21, 0, 6, 0.00,60.00,SummerDesignDay
58,475601142.700951
88,147320145.443255
443,224813060.552967
701,4597200.
1756,475601142.700951
2,1, 7,21, 0, 7, 0.00,60.00,SummerDesignDay
58,610885874.696958
88,126364203.520586
443,224813060.552967
701,4597200.
1756,610885874.696958
2,1, 7,21, 0, 8, 0.00,60.00,SummerDesignDay
58,712805042.043842
88,124693262.065756
443,224813060.552967
701,4597200.
1756,712805042.043842
2,1, 7,21, 0, 9, 0.00,60.00,SummerDesignDay
58,709028171.1722
88,124547812.705664
443,224813060.552967
701,4597200.
1756,709028171.1722
2,1, 7,21, 0,10, 0.00,60.00,SummerDesignDay
58,725807858.008708
88,124547812.705664
443,224813060.552967
701,4597200.
1756,725807858.008708
2,1, 7,21, 0,11, 0.00,60.00,SummerDesignDay
58,739622731.723489
88,124547812.705664
443,224813060.552967
701,4597200.
1756,739622731.723489
2,1, 7,21, 0,12, 0.00,60.00,SummerDesignDay
58,746289971.013428
88,124547812.705664
443,224813060.552967
701,17572944.2623094
1756,746289971.013428
2,1, 7,21, 0,13, 0.00,60.00,SummerDesignDay
58,753483376.736565
88,124547812.705664
443,224813060.552967
701,17016568.2541947
1756,753483376.736564
2,1, 7,21, 0,14, 0.00,60.00,SummerDesignDay
58,765578600.285071
88,124547812.705664
443,224813060.552967
701,14349991.4276263
1756,765578600.28507
2,1, 7,21, 0,15, 0.00,60.00,SummerDesignDay
58,775232177.944155
88,124547812.705664
443,224813060.552967
701,13120121.3778228
1756,775232177.944155
2,1, 7,21, 0,16, 0.00,60.00,SummerDesignDay
58,764918380.851525
88,124547812.705664
443,224813060.552967
701,12997635.6294901
1756,764918380.851525
2,1, 7,21, 0,17, 0.00,60.00,SummerDesignDay
58,752524077.401475
88,124547812.705664
443,224813060.552967
701,13205386.2278993
1756,752524077.401475
2,1, 7,21, 0,18, 0.00,60.00,SummerDesignDay
58,734588734.985057
88,125589174.048485
443,224813060.552967
701,8735165.9750311
1756,734588734.985057
2,1, 7,21, 0,19, 0.00,60.00,SummerDesignDay
58,697341040.870513
88,134259980.004604
443,224813060.552967
701,8691205.94605116
1756,697341040.870513
2,1, 7,21, 0,20, 0.00,60.00,SummerDesignDay
58,701301077.215695
88,158309273.450227
443,224813060.552967
701,4597200.
1756,701301077.215695
2,1, 7,21, 0,21, 0.00,60.00,SummerDesignDay
58,690264905.045535
88,158309273.450227
443,224813060.552967
701,4597200.
1756,690264905.045534
2,1, 7,21, 0,22, 0.00,60.00,SummerDesignDay
58,676670445.557695
88,158309273.450227
443,224813060.552967
701,4597200.
1756,676670445.557695
2,1, 7,21, 0,23, 0.00,60.00,SummerDesignDay
58,502442254.899798
88,158309273.450227
443,224813060.552967
701,4597200.
1756,502442254.899798
2,1, 7,21, 0,24, 0.00,60.00,SummerDesignDay
58,503413223.834114
88,158309273.450227
443,224813060.552967
701,4597200.
1756,503413223.834113
1,San Francisco Intl Ap CA USA TMY3 WMO#=724940,  37.62,-122.40,  -8.00,   2.00
2,1, 1, 1, 0, 1, 0.00,60.00,Holiday        
58,61035577.042117
88,7915463.67251137
443,33399901.5013581
701,4597200.
1756,61035577.0421169
2,1, 1, 1, 0, 2, 0.00,60.00,Holiday        
58,61036294.1179892
88,7915463.67251137
443,33399901.5013581
701,4597200.
1756,61036294.1179892
2,1, 1, 1, 0, 3, 0.00,60.00,Holiday        
58,61036294.1179892
88,7915463.67251137
443,33399901.5013581
701,4597200.
1756,61036294.1179892
2,1, 1, 1, 0, 4, 0.00,60.00,Holiday        
58,61036294.1179892
88,7915463.67251137
443,33399901.5013581
701,4597200.
1756,61036294.1179892
2,1, 1, 1, 0, 5, 0.00,60.00,Holiday        
58,61036294.1179892
88,7915463.67251137
443,33399901.5013581
701,4597200.
1756,61036294.1179892
2,1, 1, 1, 0, 6, 0.00,60.00,Holiday        
58,61036294.1179892
88,7915463.67251137
443,33399901.5013581
701,4597200.
1756,61036294.1179892
2,1, 1, 1, 0, 7, 0.00,60.00,Holiday        
58,78390593.9758415
88,6825706.96067657
443,41385398.9087341
701,4597200.
1756,78390593.9758415
2,1, 1, 1, 0, 8, 0.00,60.00,Holiday        
58,56234756.2734971
88,6538618.11210465
443,41385398.9087341
701,4597200.
1756,56234756.2734971
2,1, 1, 1, 0, 9, 0.00,60.00,Holiday        
58,48166320.4558711
88,5760147.29482151
443,41385398.9087341
701,4597200.
1756,48166320.4558711
2,1, 1, 1, 0,10, 0.00,60.00,Holiday        
58,47861000.032466
88,5454966.75032885
443,41385398.9087341
701,4597200.
1756,47861000.032466
2,1, 1, 1, 0,11, 0.00,60.00,Holiday        
58,47805412.260295
88,5399424.815064
443,41385398.9087341
701,4597200.
1756,47805412.260295
2,1, 1, 1, 0,12, 0.00,60.00,Holiday        
58,47776004.9312081
88,5370038.36600498
443,41385398.9087341
701,4597200.
1756,47776004.9312081
2,1, 1, 1, 0,13, 0.00,60.00,Holiday        
58,47776004.9312081
88,5370038.36600498
443,41385398.9087341
701,4597200.
1756,47776004.9312081
2,1, 1, 1, 0,14, 0.00,60.00,Holiday        
58,47779307.1045972
88,5373340.53939405
443,41385398.9087341
701,4597200.
1756,47779307.1045972
2,1, 1, 1, 0,15, 0.00,60.00,Holiday        
58,53433904.9959452
88,5417693.94225621
443,41385398.9087341
701,4597200.
1756,53433904.9959452
2,1, 1, 1, 0,16, 0.00,60.00,Holiday        
58,48006557.7728874
88,5600533.75453648
443,41385398.9087341
701,4597200.
1756,48006557.7728874
2,1, 1, 1, 0,17, 0.00,60.00,Holiday        
58,56305137.1872827
88,6609181.75763705
443,41385398.9087341
701,4597200.
1756,56305137.1872827
2,1, 1, 1, 0,18, 0.00,60.00,Holiday        
58,78390468.9441826
88,6825706.96067657
443,41385398.9087341
701,4597200.
1756,78390468.9441826
2,1, 1, 1, 0,19, 0.00,60.00,Holiday        
58,71353669.0902863
88,7915463.67251137
443,33399901.5013581
701,4597200.
1756,71353669.0902863
2,1, 1, 1, 0,20, 0.00,60.00,Holiday        
58,71353768.1179892
88,7915463.67251137
443,33399901.5013581
701,4597200.
1756,71353768.1179892
2,1, 1, 1, 0,21, 0.00,60.00,Holiday        
58,71353768.1179892
88,7915463.67251137
443,33399901.5013581
701,4597200.
1756,71353768.1179892
2,1, 1, 1, 0,22, 0.00,60.00,Holiday        
58,71353768.1179892
88,7915463.67251137
443,33399901.5013581
701,4597200.
1756,71353768.1179892
2,1, 1, 1, 0,23, 0.00,60.00,Holiday        
58,71353768.1179892
88,7915463.67251137
443,33399901.5013581
701,4597200.
1756,71353768.1179892
2,1, 1, 1, 0,24, 0.00,60.00,Holiday        
58,71353768.1179892
88,7915463.67251137
443,33399901.5013581
701,4597200.
1756,71353768.1179892
2,2, 1, 2, 0, 1, 0.00,60.00,Monday         
58,72340000.9157607
88,7915463.67251137
443,44533202.0018108
701,4597200.
1756,72340000.9157607
2,2, 1, 2, 0, 2, 0.00,60.00,Monday         
58,72340000.9157607
88,7915463.67251137
443,44533202.0018108
701,4597200.
1756,72340000.9157607
2,2, 1, 2, 0, 3, 0.00,60.00,Monday         
58,72340000.9157607
88,7915463.67251137
443,44533202.0018108
701,4597200.
1756,72340000.9157607
2,2, 1, 2, 0, 4, 0.00,60.00,Monday         
58,72340000.9157607
88,7915463.67251137
443,44533202.0018108
701,4597200.
1756,72340000.9157607
2,2, 1, 2, 0, 5, 0.00,60.00,Monday         
58,72340000.9157607
88,7915463.67251137
443,44533202.0018108
701,4597200.
1756,72340000.9157607
2,2, 1, 2, 0, 6, 0.00,60.00,Monday         
58,98245226.5025747
88,15830927.3450227
443,44533202.0018108
701,10887683.0745512
1756,98245226.5025747
2,2, 1, 2, 0, 7, 0.00,60.00,Monday         
58,350828931.67465
88,13651413.9213531
443,55180531.8783121
701,7990000.09948284
1756,350828931.67465
2,2, 1, 2, 0, 8, 0.00,60.00,Monday         
58,506951103.157339
88,39231708.6726279
443,95796493.4167736
701,4597200.
1756,506951103.157339
2,2, 1, 2, 0, 9, 0.00,60.00,Monday         
58,486890801.68738
88,102992977.209714
443,204227663.759169
701,4597200.
1756,486890801.68738
2,2, 1, 2, 0,10, 0.00,60.00,Monday         
58,391082302.417902
88,97825488.9842877
443,174055806.616312
701,4597200.
1756,391082302.417902
2,2, 1, 2, 0,11, 0.00,60.00,Monday         
58,365444056.410938
88,97054952.7261222
443,167093070.352576
701,4597200.
1756,365444056.410938
2,2, 1, 2, 0,12, 0.00,60.00,Monday         
58,362835564.423141
88,96660690.5880898
443,174055806.616312
701,4597200.
1756,362835564.423142
2,2, 1, 2, 0,13, 0.00,60.00,Monday         
58,379126839.735763
88,96660690.5880898
443,177667514.306075
701,18274362.1273812
1756,379126839.735763
2,2, 1, 2, 0,14, 0.00,60.00,Monday         
58,348742183.664595
88,96660690.5880898
443,179858086.836092
701,22785957.1373932
1756,348742183.664595
2,2, 1, 2, 0,15, 0.00,60.00,Monday         
58,331704284.234988
88,97518490.9606118
443,167093070.352576
701,13176688.7286792
1756,331704284.234988
2,2, 1, 2, 0,16, 0.00,60.00,Monday         
58,335070999.21477
88,100319394.615964
443,167093070.352576
701,13130004.5361704
1756,335070999.21477
2,2, 1, 2, 0,17, 0.00,60.00,Monday         
58,383185429.918844
88,118965271.637467
443,177537174.74818
701,13524240.6993524
1756,383185429.918844
2,2, 1, 2, 0,18, 0.00,60.00,Monday         
58,387520035.267857
88,68257069.6067657
443,140923939.573165
701,13017795.162362
1756,387520035.267857
2,2, 1, 2, 0,19, 0.00,60.00,Monday         
58,313324150.695294
88,40954241.7640594
443,69106004.4057846
701,8734452.61130012
1756,313324150.695294
2,2, 1, 2, 0,20, 0.00,60.00,Monday         
58,306530132.449594
88,40954241.7640594
443,59822356.0541363
701,8670558.72795759
1756,306530132.449594
2,2, 1, 2, 0,21, 0.00,60.00,Monday         
58,301997279.545367
88,27302827.8427063
443,59822356.0541363
701,4597200.
1756,301997279.545367
2,2, 1, 2, 0,22, 0.00,60.00,Monday         
58,307213952.636986
88,27302827.8427063
443,55180531.8783121
701,4597200.
1756,307213952.636986
2,2, 1, 2, 0,23, 0.00,60.00,Monday         
58,99285849.1003389
88,13651413.9213531
443,55180531.8783121
701,4597200.
1756,99285849.1003388
2,2, 1, 2, 0,24, 0.00,60.00,Monday         
58,92454692.4766817
88,6825706.96067657
443,55180531.8783121
701,4597200.
1756,92454692.4766817
2,3, 1, 3, 0, 1, 0.00,60.00,Tuesday        
58,72339865.2674801
88,7915463.67251137
443,44533202.0018108
701,4597200.
1756,72339865.26748
2,3, 1, 3, 0, 2, 0.00,60.00,Tuesday        
58,72340000.9157607
88,7915463.67251137
443,44533202.0018108
701,4597200.
1756,72340000.9157607
2,3, 1, 3, 0, 3, 0.00,60.00,Tuesday        
58,72340000.9157607
88,7915463.67251137
443,44533202.0018108
701,4597200.
1756,72340000.9157607
2,3, 1, 3, 0, 4, 0.00,60.00,Tuesday        
58,72340000.9157607
88,7915463.67251137
443,44533202.0018108
701,4597200.
1756,72340000.9157607
2,3, 1, 3, 0, 5, 0.00,60.00,Tuesday        
58,72340000.9157607
88,7915463.67251137
443,44533202.0018108
701,4597200.
1756,72340000.9157607
2,3, 1, 3, 0, 6, 0.00,60.00,Tuesday        
58,80258429.8383602
88,15830927.3450227
443,44533202.0018108
701,4597200.
1756,80258429.8383602
2,3, 1, 3, 0, 7, 0.00,60.00,Tuesday        
58,254600645.386976
88,13651413.9213531
443,55180531.8783121
701,4597200.
1756,254600645.386976
2,3, 1, 3, 0, 8, 0.00,60.00,Tuesday        
58,407014192.625545
88,39231708.6726279
443,95796493.4167736
701,4597200.
1756,407014192.625545
2,3, 1, 3, 0, 9, 0.00,60.00,Tuesday        
58,419658163.229476
88,102556351.7655
443,204227663.759169
701,4597200.
1756,419658163.229476
2,3, 1, 3, 0,10, 0.00,60.00,Tuesday        
58,350146151.891753
88,97825488.9842877
443,174055806.616312
701,4597200.
1756,350146151.891754
2,3, 1, 3, 0,11, 0.00,60.00,Tuesday        
58,334322237.029485
88,97114391.8471255
443,167093070.352576
701,13258007.8961195
1756,334322237.029485
2,3, 1, 3, 0,12, 0.00,60.00,Tuesday        
58,340703299.727654
88,96660690.5880898
443,174055806.616312
701,17864568.8911023
1756,340703299.727654
2,3, 1, 3, 0,13, 0.00,60.00,Tuesday        
58,352372592.209782
88,96660690.5880898
443,177667514.306075
701,22841423.2481718
1756,352372592.209782
2,3, 1, 3, 0,14, 0.00,60.00,Tuesday        
58,342010506.43455
88,96720129.709093
443,179858086.836092
701,18226163.1295431
1756,342010506.43455
2,3, 1, 3, 0,15, 0.00,60.00,Tuesday        
58,326633124.117471
88,97712628.9633297
443,167093070.352576
701,13282239.8028827
1756,326633124.117471
2,3, 1, 3, 0,16, 0.00,60.00,Tuesday        
58,328055555.8447
88,100482798.937861
443,167093070.352576
701,13135053.8863042
1756,328055555.8447
2,3, 1, 3, 0,17, 0.00,60.00,Tuesday        
58,371658175.080571
88,120057029.559552
443,177537174.74818
701,17711902.7900958
1756,371658175.080571
2,3, 1, 3, 0,18, 0.00,60.00,Tuesday        
58,355598191.919152
88,68257069.6067657
443,140923939.573165
701,8811001.47156817
1756,355598191.919152
2,3, 1, 3, 0,19, 0.00,60.00,Tuesday        
58,270437751.376713
88,40954241.7640594
443,69106004.4057846
701,8769519.37394512
1756,270437751.376713
2,3, 1, 3, 0,20, 0.00,60.00,Tuesday        
58,266786489.518658
88,40954241.7640594
443,59822356.0541363
701,8710399.78146112
1756,266786489.518658
2,3, 1, 3, 0,21, 0.00,60.00,Tuesday        
58,266511857.8428
88,27302827.8427063
443,59822356.0541363
701,8688863.4393206
1756,266511857.8428
2,3, 1, 3, 0,22, 0.00,60.00,Tuesday        
58,270744889.996613
88,27302827.8427063
443,55180531.8783121
701,4597200.
1756,270744889.996613
2,3, 1, 3, 0,23, 0.00,60.00,Tuesday        
58,99285849.1003389
88,13651413.9213531
443,55180531.8783121
701,4597200.
1756,99285849.1003388
2,3, 1, 3, 0,24, 0.00,60.00,Tuesday        
58,92454692.4766817
88,6825706.96067657
443,55180531.8783121
701,4597200.
1756,92454692.4766817
2,4, 1, 4, 0, 1, 0.00,60.00,Wednesday      
58,72339865.2674801
88,7915463.67251137
443,44533202.0018108
701,4597200.
1756,72339865.26748
2,4, 1, 4, 0, 2, 0.00,60.00,Wednesday      
58,72340000.9157607
88,7915463.67251137
443,44533202.0018108
701,4597200.
1756,72340000.9157607
2,4, 1, 4, 0, 3, 0.00,60.00,Wednesday      
58,72340000.9157607
88,7915463.67251137
443,44533202.0018108
701,4597200.
1756,72340000.9157607
2,4, 1, 4, 0, 4, 0.00,60.00,Wednesday      
58,72340000.9157607
88,7915463.67251137
443,44533202.0018108
701,4597200.
1756,72340000.9157607
2,4, 1, 4, 0, 5, 0.00,60.00,Wednesday      
58,72340000.9157607
88,7915463.67251137
443,44533202.0018108
701,4597200.
1756,72340000.9157607
2,4, 1, 4, 0, 6, 0.00,60.00,Wednesday      
58,80258429.8383602
88,15830927.3450227
443,44533202.0018108
701,4597200.
1756,80258429.8383602
2,4, 1, 4, 0, 7, 0.00,60.00,Wednesday      
58,241254788.391787
88,13651413.9213531
443,55180531.8783121
701,11252511.1459236
1756,241254788.391787
2,4, 1, 4, 0, 8, 0.00,60.00,Wednesday      
58,400794438.744515
88,39350586.9146343
443,95796493.4167736
701,5435427.94687442
1756,400794438.744515
2,4, 1, 4, 0, 9, 0.00,60.00,Wednesday      
58,436105449.275247
88,102364760.600911
443,204227663.759169
701,4597200.
1756,436105449.275247
2,4, 1, 4, 0,10, 0.00,60.00,Wednesday      
58,376961467.186778
88,98176127.7043403
443,174055806.616312
701,4597200.
1756,376961467.186778
2,4, 1, 4, 0,11, 0.00,60.00,Wednesday      
58,346405227.126292
88,97292709.210135
443,167093070.352576
701,13255944.4124591
1756,346405227.126292
2,4, 1, 4, 0,12, 0.00,60.00,Wednesday      
58,338629778.060462
88,96660690.5880898
443,174055806.616312
701,17895202.5344404
1756,338629778.060462
2,4, 1, 4, 0,13, 0.00,60.00,Wednesday      
58,374287949.02783
88,96660690.5880898
443,177667514.306075
701,18309528.2387136
1756,374287949.02783
2,4, 1, 4, 0,14, 0.00,60.00,Wednesday      
58,336847256.031659
88,96720129.709093
443,179858086.836092
701,22783844.7500273
1756,336847256.031659
2,4, 1, 4, 0,15, 0.00,60.00,Wednesday      
58,323335539.700986
88,97637369.2026182
443,167093070.352576
701,13188942.1937474
1756,323335539.700986
2,4, 1, 4, 0,16, 0.00,60.00,Wednesday      
58,331337266.627952
88,99963880.5319852
443,167093070.352576
701,13128154.9283004
1756,331337266.627952
2,4, 1, 4, 0,17, 0.00,60.00,Wednesday      
58,385451642.977694
88,120273339.890849
443,177537174.74818
701,13544800.5232453
1756,385451642.977694
2,4, 1, 4, 0,18, 0.00,60.00,Wednesday      
58,370802025.361779
88,68257069.6067657
443,140923939.573165
701,13009647.1216606
1756,370802025.361779
2,4, 1, 4, 0,19, 0.00,60.00,Wednesday      
58,291960357.822307
88,40954241.7640594
443,69106004.4057846
701,8734504.96667575
1756,291960357.822307
2,4, 1, 4, 0,20, 0.00,60.00,Wednesday      
58,281439405.074117
88,40954241.7640594
443,59822356.0541363
701,8670471.50048402
1756,281439405.074117
2,4, 1, 4, 0,21, 0.00,60.00,Wednesday      
58,278901827.198515
88,27302827.8427063
443,59822356.0541363
701,4597200.
1756,278901827.198515
2,4, 1, 4, 0,22, 0.00,60.00,Wednesday      
58,282291328.541286
88,27302827.8427063
443,55180531.8783121
701,4597200.
1756,282291328.541286
2,4, 1, 4, 0,23, 0.00,60.00,Wednesday      
58,99285849.1003389
88,13651413.9213531
443,55180531.8783121
701,4597200.
1756,99285849.1003388
2,4, 1, 4, 0,24, 0.00,60.00,Wednesday      
58,92454692.4766817
88,6825706.96067657
443,55180531.8783121
701,4597200.
1756,92454692.4766817
2,5, 1, 5, 0, 1, 0.00,60.00,Thursday       
58,72339865.2674801
88,7915463.67251137
443,44533202.0018108
701,4597200.
1756,72339865.26748
2,5, 1, 5, 0, 2, 0.00,60.00,Thursday       
58,72340000.9157607
88,7915463.67251137
443,44533202.0018108
701,4597200.
1756,72340000.9157607
2,5, 1, 5, 0, 3, 0.00,60.00,Thursday       
58,72340000.9157607
88,7915463.67251137
443,44533202.0018108
701,4597200.
1756,72340000.9157607
2,5, 1, 5, 0, 4, 0.00,60.00,Thursday       
58,72340000.9157607
88,7915463.67251137
443,44533202.0018108
701,4597200.
1756,72340000.9157607
2,5, 1, 5, 0, 5, 0.00,60.00,Thursday       
58,72340000.9157607
88,7915463.67251137
443,44533202.0018108
701,4597200.
1756,72340000.9157607
2,5, 1, 5, 0, 6, 0.00,60.00,Thursday       
58,80258429.8383602
88,15830927.3450227
443,44533202.0018108
701,4597200.
1756,80258429.8383602
2,5, 1, 5, 0, 7, 0.00,60.00,Thursday       
58,258893318.663698
88,13651413.9213531
443,55180531.8783121
701,12992320.6370457
1756,258893318.663698
2,5, 1, 5, 0, 8, 0.00,60.00,Thursday       
58,414151600.148989
88,39310960.8339655
443,95796493.4167736
701,4635932.19921322
1756,414151600.148989
2,5, 1, 5, 0, 9, 0.00,60.00,Thursday       
58,436006779.680521
88,102230066.655882
443,204227663.759169
701,4597200.
1756,436006779.680521
2,5, 1, 5, 0,10, 0.00,60.00,Thursday       
58,364979308.281081
88,97825488.9842877
443,174055806.616312
701,4597200.
1756,364979308.281081
2,5, 1, 5, 0,11, 0.00,60.00,Thursday       
58,332774340.068466
88,96720129.709093
443,167093070.352576
701,13260388.1789794
1756,332774340.068466
2,5, 1, 5, 0,12, 0.00,60.00,Thursday       
58,341026834.331429
88,96660690.5880898
443,174055806.616312
701,17851890.0914943
1756,341026834.331429
2,5, 1, 5, 0,13, 0.00,60.00,Thursday       
58,380661913.741672
88,96660690.5880898
443,177667514.306075
701,22839455.2470285
1756,380661913.741673
2,5, 1, 5, 0,14, 0.00,60.00,Thursday       
58,342659858.738539
88,96779568.8300962
443,179858086.836092
701,18228454.454526
1756,342659858.738539
2,5, 1, 5, 0,15, 0.00,60.00,Thursday       
58,328163011.212249
88,97518490.9606118
443,167093070.352576
701,13282747.2558484
1756,328163011.212249
2,5, 1, 5, 0,16, 0.00,60.00,Thursday       
58,329337149.542014
88,100482798.937861
443,167093070.352576
701,13135615.9805802
1756,329337149.542014
2,5, 1, 5, 0,17, 0.00,60.00,Thursday       
58,372819172.043114
88,118786954.274457
443,177537174.74818
701,17704894.2625847
1756,372819172.043114
2,5, 1, 5, 0,18, 0.00,60.00,Thursday       
58,360653303.456894
88,68257069.6067657
443,140923939.573165
701,8814067.48716057
1756,360653303.456894
2,5, 1, 5, 0,19, 0.00,60.00,Thursday       
58,279636995.833684
88,40954241.7640594
443,69106004.4057846
701,8771705.94350113
1756,279636995.833684
2,5, 1, 5, 0,20, 0.00,60.00,Thursday       
58,271300434.659886
88,40954241.7640594
443,59822356.0541363
701,8710422.65222291
1756,271300434.659886
2,5, 1, 5, 0,21, 0.00,60.00,Thursday       
58,269009144.395575
88,27302827.8427063
443,59822356.0541363
701,8688333.67476148
1756,269009144.395575
2,5, 1, 5, 0,22, 0.00,60.00,Thursday       
58,274970689.128139
88,27302827.8427063
443,55180531.8783121
701,4597200.
1756,274970689.128139
2,5, 1, 5, 0,23, 0.00,60.00,Thursday       
58,99285849.1003389
88,13651413.9213531
443,55180531.8783121
701,4597200.
1756,99285849.1003388
2,5, 1, 5, 0,24, 0.00,60.00,Thursday       
58,92454692.4766817
88,6825706.96067657
443,55180531.8783121
701,4597200.
1756,92454692.4766817
2,6, 1, 6, 0, 1, 0.00,60.00,Friday         
58,72339865.2674801
88,7915463.67251137
443,44533202.0018108
701,4597200.
1756,72339865.26748
2,6, 1, 6, 0, 2, 0.00,60.00,Friday         
58,72340000.9157607
88,7915463.67251137
443,44533202.0018108
701,4597200.
1756,72340000.9157607
2,6, 1, 6, 0, 3, 0.00,60.00,Friday         
58,72340000.9157607
88,7915463.67251137
443,44533202.0018108
701,4597200.
1756,72340000.9157607
2,6, 1, 6, 0, 4, 0.00,60.00,Friday         
58,72340000.9157607
88,7915463.67251137
443,44533202.0018108
701,4597200.
1756,72340000.9157607
2,6, 1, 6, 0, 5, 0.00,60.00,Friday         
58,72340000.9157607
88,7915463.67251137
443,44533202.0018108
701,4597200.
1756,72340000.9157607
2,6, 1, 6, 0, 6, 0.00,60.00,Friday         
58,80258429.8383602
88,15830927.3450227
443,44533202.0018108
701,4597200.
1756,80258429.8383602
2,6, 1, 6, 0, 7, 0.00,60.00,Friday         
58,248131718.196568
88,13651413.9213531
443,55180531.8783121
701,9274799.75742968
1756,248131718.196568
2,6, 1, 6, 0, 8, 0.00,60.00,Friday         
58,401475036.818896
88,39231708.6726279
443,95796493.4167736
701,7184973.43240064
1756,401475036.818896
2,6, 1, 6, 0, 9, 0.00,60.00,Friday         
58,416621257.114121
88,102459285.232484
443,204227663.759169
701,5130356.95640141
1756,416621257.114121
2,6, 1, 6, 0,10, 0.00,60.00,Friday         
58,347457342.749429
88,97750234.1602611
443,174055806.616312
701,4597200.
1756,347457342.749429
2,6, 1, 6, 0,11, 0.00,60.00,Friday         
58,336809511.564033
88,97373960.0401282
443,167093070.352576
701,13256288.3550643
1756,336809511.564033
2,6, 1, 6, 0,12, 0.00,60.00,Friday         
58,342583345.834864
88,97255081.7981218
443,174055806.616312
701,17874651.4093396
1756,342583345.834864
2,6, 1, 6, 0,13, 0.00,60.00,Friday         
58,369490720.591929
88,96660690.5880898
443,177667514.306075
701,18307342.8041366
1756,369490720.591929
2,6, 1, 6, 0,14, 0.00,60.00,Friday         
58,333128762.488437
88,96660690.5880898
443,179858086.836092
701,22791459.5822193
1756,333128762.488437
2,6, 1, 6, 0,15, 0.00,60.00,Friday         
58,316889533.360188
88,97405601.3195446
443,167093070.352576
701,13178120.9772293
1756,316889533.360188
2,6, 1, 6, 0,16, 0.00,60.00,Friday         
58,320570551.664571
88,99208490.9355858
443,167093070.352576
701,13130808.3484427
1756,320570551.664571
2,6, 1, 6, 0,17, 0.00,60.00,Friday         
58,367974446.558985
88,118965271.637467
443,177537174.74818
701,15719337.2871471
1756,367974446.558985
2,6, 1, 6, 0,18, 0.00,60.00,Friday         
58,364540506.601557
88,68257069.6067657
443,140923939.573165
701,10837029.7334727
1756,364540506.601558
2,6, 1, 6, 0,19, 0.00,60.00,Friday         
58,289684259.285285
88,40954241.7640594
443,69106004.4057846
701,8734366.8978117
1756,289684259.285285
2,6, 1, 6, 0,20, 0.00,60.00,Friday         
58,277757161.595222
88,40954241.7640594
443,59822356.0541363
701,8667069.02137433
1756,277757161.595222
2,6, 1, 6, 0,21, 0.00,60.00,Friday         
58,274559357.216278
88,27302827.8427063
443,59822356.0541363
701,4597200.
1756,274559357.216278
2,6, 1, 6, 0,22, 0.00,60.00,Friday         
58,277050836.529607
88,27302827.8427063
443,55180531.8783121
701,4597200.
1756,277050836.529607
2,6, 1, 6, 0,23, 0.00,60.00,Friday         
58,99285849.1003389
88,13651413.9213531
443,55180531.8783121
701,4597200.
1756,99285849.1003388
2,6, 1, 6, 0,24, 0.00,60.00,Friday         
58,92454692.4766817
88,6825706.96067657
443,55180531.8783121
701,4597200.
1756,92454692.4766817
2,7, 1, 7, 0, 1, 0.00,60.00,Saturday       
58,61036195.0902863
88,7915463.67251137
443,33399901.5013581
701,4597200.
1756,61036195.0902863
2,7, 1, 7, 0, 2, 0.00,60.00,Saturday       
58,61036294.1179892
88,7915463.67251137
443,33399901.5013581
701,4597200.
1756,61036294.1179892
2,7, 1, 7, 0, 3, 0.00,60.00,Saturday       
58,61036294.1179892
88,7915463.67251137
443,33399901.5013581
701,4597200.
1756,61036294.1179892
2,7, 1, 7, 0, 4, 0.00,60.00,Saturday       
58,61036294.1179892
88,7915463.67251137
443,33399901.5013581
701,4597200.
1756,61036294.1179892
2,7, 1, 7, 0, 5, 0.00,60.00,Saturday       
58,61036294.1179892
88,7915463.67251137
443,33399901.5013581
701,4597200.
1756,61036294.1179892
2,7, 1, 7, 0, 6, 0.00,60.00,Saturday       
58,61036294.1179892
88,7915463.67251137
443,33399901.5013581
701,4597200.
1756,61036294.1179892
2,7, 1, 7, 0, 7, 0.00,60.00,Saturday       
58,234551149.154593
88,13651413.9213531
443,55180531.8783121
701,4597200.
1756,234551149.154593
2,7, 1, 7, 0, 8, 0.00,60.00,Saturday       
58,345050898.1282
88,13580619.0323378
443,73747828.5816088
701,4597200.
1756,345050898.1282
2,7, 1, 7, 0, 9, 0.00,60.00,Saturday       
58,315462646.696339
88,36919014.2395654
443,85222049.4632748
701,4597200.
1756,315462646.696339
2,7, 1, 7, 0,10, 0.00,60.00,Saturday       
58,299785433.794823
88,33360679.9184784
443,93345241.7709671
701,4597200.
1756,299785433.794823
2,7, 1, 7, 0,11, 0.00,60.00,Saturday       
58,279100225.882754
88,32655393.8012088
443,89863873.6390989
701,4597200.
1756,279100225.882754
2,7, 1, 7, 0,12, 0.00,60.00,Saturday       
58,296207480.777459
88,33483734.2338267
443,97987065.9467912
701,4597200.
1756,296207480.777459
2,7, 1, 7, 0,13, 0.00,60.00,Saturday       
58,258322274.06399
88,16235264.5753569
443,72652542.3166
701,4597200.
1756,258322274.06399
2,7, 1, 7, 0,14, 0.00,60.00,Saturday       
58,227908822.008952
88,16179460.7391854
443,63368893.9649517
701,4597200.
1756,227908822.008952
2,7, 1, 7, 0,15, 0.00,60.00,Saturday       
58,225947041.114178
88,16254079.9269252
443,57566613.7451715
701,8666647.3129282
1756,225947041.114178
2,7, 1, 7, 0,16, 0.00,60.00,Saturday       
58,220931841.31609
88,16492485.6353108
443,52924789.5693473
701,4597200.
1756,220931841.31609