Program Version,EnergyPlus, Version 9.0.1-bb7ca4f0da, YMD=2018.11.01 16:06
1,5,Environment Title[],Latitude[deg],Longitude[deg],Time Zone[],Elevation[m]
2,8,Day of Simulation[],Month[],Day of Month[],DST Indicator[1=yes 0=no],Hour[],StartMinute[],EndMinute[],DayType
3,5,Cumulative Day of Simulation[],Month[],Day of Month[],DST Indicator[1=yes 0=no],DayType  ! When Daily Report Variables Requested
4,2,Cumulative Days of Simulation[],Month[]  ! When Monthly Report Variables Requested
5,1,Cumulative Days of Simulation[] ! When Run Period Report Variables Requested
6,1,Calendar Year of Simulation[] ! When Annual Report Variables Requested
1062,1,BASEMENT,Zone Mean Air Temperature [C] !Hourly
1063,1,BASEMENT,Zone Air Heat Balance Internal Convective Heat Gain Rate [W] !Hourly
1064,1,BASEMENT,Zone Air Heat Balance Surface Convection Rate [W] !Hourly
1065,1,BASEMENT,Zone Air Heat Balance Interzone Air Transfer Rate [W] !Hourly
1066,1,BASEMENT,Zone Air Heat Balance Outdoor Air Transfer Rate [W] !Hourly
1067,1,BASEMENT,Zone Air Heat Balance System Air Transfer Rate [W] !Hourly
1068,1,CORE_BOTTOM,Zone Mean Air Temperature [C] !Hourly
1069,1,CORE_BOTTOM,Zone Air Heat Balance Internal Convective Heat Gain Rate [W] !Hourly
1070,1,CORE_BOTTOM,Zone Air Heat Balance Surface Convection Rate [W] !Hourly
1071,1,CORE_BOTTOM,Zone Air Heat Balance Interzone Air Transfer Rate [W] !Hourly
1072,1,CORE_BOTTOM,Zone Air Heat Balance Outdoor Air Transfer Rate [W] !Hourly
1073,1,CORE_BOTTOM,Zone Air Heat Balance System Air Transfer Rate [W] !Hourly
1074,1,CORE_MID,Zone Mean Air Temperature [C] !Hourly
1075,1,CORE_MID,Zone Air Heat Balance Internal Convective Heat Gain Rate [W] !Hourly
1076,1,CORE_MID,Zone Air Heat Balance Surface Convection Rate [W] !Hourly
1077,1,CORE_MID,Zone Air Heat Balance Interzone Air Transfer Rate [W] !Hourly
1078,1,CORE_MID,Zone Air Heat Balance Outdoor Air Transfer Rate [W] !Hourly
1079,1,CORE_MID,Zone Air Heat Balance System Air Transfer Rate [W] !Hourly
1080,1,CORE_TOP,Zone Mean Air Temperature [C] !Hourly
1081,1,CORE_TOP,Zone Air Heat Balance Internal Convective Heat Gain Rate [W] !Hourly
1082,1,CORE_TOP,Zone Air Heat Balance Surface Convection Rate [W] !Hourly
1083,1,CORE_TOP,Zone Air Heat Balance Interzone Air Transfer Rate [W] !Hourly
1084,1,CORE_TOP,Zone Air Heat Balance Outdoor Air Transfer Rate [W] !Hourly
1085,1,CORE_TOP,Zone Air Heat Balance System Air Transfer Rate [W] !Hourly
1086,1,PERIMETER_BOT_ZN_3,Zone Mean Air Temperature [C] !Hourly
1087,1,PERIMETER_BOT_ZN_3,Zone Air Heat Balance Internal Convective Heat Gain Rate [W] !Hourly
1088,1,PERIMETER_BOT_ZN_3,Zone Air Heat Balance Surface Convection Rate [W] !Hourly
1089,1,PERIMETER_BOT_ZN_3,Zone Air Heat Balance Interzone Air Transfer Rate [W] !Hourly
1090,1,PERIMETER_BOT_ZN_3,Zone Air Heat Balance Outdoor Air Transfer Rate [W] !Hourly
1091,1,PERIMETER_BOT_ZN_3,Zone Air Heat Balance System Air Transfer Rate [W] !Hourly
1092,1,PERIMETER_BOT_ZN_2,Zone Mean Air Temperature [C] !Hourly
1093,1,PERIMETER_BOT_ZN_2,Zone Air Heat Balance Internal Convective Heat Gain Rate [W] !Hourly
1094,1,PERIMETER_BOT_ZN_2,Zone Air Heat Balance Surface Convection Rate [W] !Hourly
1095,1,PERIMETER_BOT_ZN_2,Zone Air Heat Balance Interzone Air Transfer Rate [W] !Hourly
1096,1,PERIMETER_BOT_ZN_2,Zone Air Heat Balance Outdoor Air Transfer Rate [W] !Hourly
1097,1,PERIMETER_BOT_ZN_2,Zone Air Heat Balance System Air Transfer Rate [W] !Hourly
1098,1,PERIMETER_BOT_ZN_1,Zone Mean Air Temperature [C] !Hourly
1099,1,PERIMETER_BOT_ZN_1,Zone Air Heat Balance Internal Convective Heat Gain Rate [W] !Hourly
1100,1,PERIMETER_BOT_ZN_1,Zone Air Heat Balance Surface Convection Rate [W] !Hourly
1101,1,PERIMETER_BOT_ZN_1,Zone Air Heat Balance Interzone Air Transfer Rate [W] !Hourly
1102,1,PERIMETER_BOT_ZN_1,Zone Air Heat Balance Outdoor Air Transfer Rate [W] !Hourly
1103,1,PERIMETER_BOT_ZN_1,Zone Air Heat Balance System Air Transfer Rate [W] !Hourly
1104,1,PERIMETER_BOT_ZN_4,Zone Mean Air Temperature [C] !Hourly
1105,1,PERIMETER_BOT_ZN_4,Zone Air Heat Balance Internal Convective Heat Gain Rate [W] !Hourly
1106,1,PERIMETER_BOT_ZN_4,Zone Air Heat Balance Surface Convection Rate [W] !Hourly
1107,1,PERIMETER_BOT_ZN_4,Zone Air Heat Balance Interzone Air Transfer Rate [W] !Hourly
1108,1,PERIMETER_BOT_ZN_4,Zone Air Heat Balance Outdoor Air Transfer Rate [W] !Hourly
1109,1,PERIMETER_BOT_ZN_4,Zone Air Heat Balance System Air Transfer Rate [W] !Hourly
1110,1,PERIMETER_MID_ZN_3,Zone Mean Air Temperature [C] !Hourly
1111,1,PERIMETER_MID_ZN_3,Zone Air Heat Balance Internal Convective Heat Gain Rate [W] !Hourly
1112,1,PERIMETER_MID_ZN_3,Zone Air Heat Balance Surface Convection Rate [W] !Hourly
1113,1,PERIMETER_MID_ZN_3,Zone Air Heat Balance Interzone Air Transfer Rate [W] !Hourly
1114,1,PERIMETER_MID_ZN_3,Zone Air Heat Balance Outdoor Air Transfer Rate [W] !Hourly
1115,1,PERIMETER_MID_ZN_3,Zone Air Heat Balance System Air Transfer Rate [W] !Hourly
1116,1,PERIMETER_MID_ZN_2,Zone Mean Air Temperature [C] !Hourly
1117,1,PERIMETER_MID_ZN_2,Zone Air Heat Balance Internal Convective Heat Gain Rate [W] !Hourly
1118,1,PERIMETER_MID_ZN_2,Zone Air Heat Balance Surface Convection Rate [W] !Hourly
1119,1,PERIMETER_MID_ZN_2,Zone Air Heat Balance Interzone Air Transfer Rate [W] !Hourly
1120,1,PERIMETER_MID_ZN_2,Zone Air Heat Balance Outdoor Air Transfer Rate [W] !Hourly
1121,1,PERIMETER_MID_ZN_2,Zone Air Heat Balance System Air Transfer Rate [W] !Hourly
1122,1,PERIMETER_MID_ZN_1,Zone Mean Air Temperature [C] !Hourly
1123,1,PERIMETER_MID_ZN_1,Zone Air Heat Balance Internal Convective Heat Gain Rate [W] !Hourly
1124,1,PERIMETER_MID_ZN_1,Zone Air Heat Balance Surface Convection Rate [W] !Hourly
1125,1,PERIMETER_MID_ZN_1,Zone Air Heat Balance Interzone Air Transfer Rate [W] !Hourly
1126,1,PERIMETER_MID_ZN_1,Zone Air Heat Balance Outdoor Air Transfer Rate [W] !Hourly
1127,1,PERIMETER_MID_ZN_1,Zone Air Heat Balance System Air Transfer Rate [W] !Hourly
1128,1,PERIMETER_MID_ZN_4,Zone Mean Air Temperature [C] !Hourly
1129,1,PERIMETER_MID_ZN_4,Zone Air Heat Balance Internal Convective Heat Gain Rate [W] !Hourly
1130,1,PERIMETER_MID_ZN_4,Zone Air Heat Balance Surface Convection Rate [W] !Hourly
1131,1,PERIMETER_MID_ZN_4,Zone Air Heat Balance Interzone Air Transfer Rate [W] !Hourly
1132,1,PERIMETER_MID_ZN_4,Zone Air Heat Balance Outdoor Air Transfer Rate [W] !Hourly
1133,1,PERIMETER_MID_ZN_4,Zone Air Heat Balance System Air Transfer Rate [W] !Hourly
1134,1,PERIMETER_TOP_ZN_3,Zone Mean Air Temperature [C] !Hourly
1135,1,PERIMETER_TOP_ZN_3,Zone Air Heat Balance Internal Convective Heat Gain Rate [W] !Hourly
1136,1,PERIMETER_TOP_ZN_3,Zone Air Heat Balance Surface Convection Rate [W] !Hourly
1137,1,PERIMETER_TOP_ZN_3,Zone Air Heat Balance Interzone Air Transfer Rate [W] !Hourly
1138,1,PERIMETER_TOP_ZN_3,Zone Air Heat Balance Outdoor Air Transfer Rate [W] !Hourly
1139,1,PERIMETER_TOP_ZN_3,Zone Air Heat Balance System Air Transfer Rate [W] !Hourly
1140,1,PERIMETER_TOP_ZN_2,Zone Mean Air Temperature [C] !Hourly
1141,1,PERIMETER_TOP_ZN_2,Zone Air Heat Balance Internal Convective Heat Gain Rate [W] !Hourly
1142,1,PERIMETER_TOP_ZN_2,Zone Air Heat Balance Surface Convection Rate [W] !Hourly
1143,1,PERIMETER_TOP_ZN_2,Zone Air Heat Balance Interzone Air Transfer Rate [W] !Hourly
1144,1,PERIMETER_TOP_ZN_2,Zone Air Heat Balance Outdoor Air Transfer Rate [W] !Hourly
1145,1,PERIMETER_TOP_ZN_2,Zone Air Heat Balance System Air Transfer Rate [W] !Hourly
1146,1,PERIMETER_TOP_ZN_1,Zone Mean Air Temperature [C] !Hourly
1147,1,PERIMETER_TOP_ZN_1,Zone Air Heat Balance Internal Convective Heat Gain Rate [W] !Hourly
1148,1,PERIMETER_TOP_ZN_1,Zone Air Heat Balance Surface Convection Rate [W] !Hourly
1149,1,PERIMETER_TOP_ZN_1,Zone Air Heat Balance Interzone Air Transfer Rate [W] !Hourly
1150,1,PERIMETER_TOP_ZN_1,Zone Air Heat Balance Outdoor Air Transfer Rate [W] !Hourly
1151,1,PERIMETER_TOP_ZN_1,Zone Air Heat Balance System Air Transfer Rate [W] !Hourly
1152,1,PERIMETER_TOP_ZN_4,Zone Mean Air Temperature [C] !Hourly
1153,1,PERIMETER_TOP_ZN_4,Zone Air Heat Balance Internal Convective Heat Gain Rate [W] !Hourly
1154,1,PERIMETER_TOP_ZN_4,Zone Air Heat Balance Surface Convection Rate [W] !Hourly
1155,1,PERIMETER_TOP_ZN_4,Zone Air Heat Balance Interzone Air Transfer Rate [W] !Hourly
1156,1,PERIMETER_TOP_ZN_4,Zone Air Heat Balance Outdoor Air Transfer Rate [W] !Hourly
1157,1,PERIMETER_TOP_ZN_4,Zone Air Heat Balance System Air Transfer Rate [W] !Hourly
1158,1,GROUNDFLOOR_PLENUM,Zone Mean Air Temperature [C] !Hourly
1159,1,GROUNDFLOOR_PLENUM,Zone Air Heat Balance Internal Convective Heat Gain Rate [W] !Hourly
1160,1,GROUNDFLOOR_PLENUM,Zone Air Heat Balance Surface Convection Rate [W] !Hourly
1161,1,GROUNDFLOOR_PLENUM,Zone Air Heat Balance Interzone Air Transfer Rate [W] !Hourly
1162,1,GROUNDFLOOR_PLENUM,Zone Air Heat Balance Outdoor Air Transfer Rate [W] !Hourly
1163,1,GROUNDFLOOR_PLENUM,Zone Air Heat Balance System Air Transfer Rate [W] !Hourly
1164,1,MIDFLOOR_PLENUM,Zone Mean Air Temperature [C] !Hourly
1165,1,MIDFLOOR_PLENUM,Zone Air Heat Balance Internal Convective Heat Gain Rate [W] !Hourly
1166,1,MIDFLOOR_PLENUM,Zone Air Heat Balance Surface Convection Rate [W] !Hourly
1167,1,MIDFLOOR_PLENUM,Zone Air Heat Balance Interzone Air Transfer Rate [W] !Hourly
1168,1,MIDFLOOR_PLENUM,Zone Air Heat Balance Outdoor Air Transfer Rate [W] !Hourly
1169,1,MIDFLOOR_PLENUM,Zone Air Heat Balance System Air Transfer Rate [W] !Hourly
1170,1,TOPFLOOR_PLENUM,Zone Mean Air Temperature [C] !Hourly
1171,1,TOPFLOOR_PLENUM,Zone Air Heat Balance Internal Convective Heat Gain Rate [W] !Hourly
1172,1,TOPFLOOR_PLENUM,Zone Air Heat Balance Surface Convection Rate [W] !Hourly
1173,1,TOPFLOOR_PLENUM,Zone Air Heat Balance Interzone Air Transfer Rate [W] !Hourly
1174,1,TOPFLOOR_PLENUM,Zone Air Heat Balance Outdoor Air Transfer Rate [W] !Hourly
1175,1,TOPFLOOR_PLENUM,Zone Air Heat Balance System Air Transfer Rate [W] !Hourly
2750,1,PERIMETER_TOP_ZN_1 VAV BOX OUTLET NODE NAME,System Node Temperature [C] !Hourly
2751,1,PERIMETER_TOP_ZN_1 VAV BOX OUTLET NODE NAME,System Node Mass Flow Rate [kg/s] !Hourly
110,1,Electricity:Facility [J] !Hourly
122,1,Electricity:Building [J] !Hourly
2180,1,ElectricityNet:Facility [J] !Hourly
2494,1,Electricity:HVAC [J] !Hourly
915,1,Gas:Facility [J] !Hourly
112,9,Electricity:Facility [J] !Monthly [Value,Min,Day,Hour,Minute,Max,Day,Hour,Minute]
917,9,Gas:Facility [J] !Monthly [Value,Min,Day,Hour,Minute,Max,Day,Hour,Minute]
2789,9,CO2:Facility [kg] !Monthly [Value,Min,Day,Hour,Minute,Max,Day,Hour,Minute]
2814,9,CO:Facility [kg] !Monthly [Value,Min,Day,Hour,Minute,Max,Day,Hour,Minute]
2839,9,CH4:Facility [kg] !Monthly [Value,Min,Day,Hour,Minute,Max,Day,Hour,Minute]
2864,9,NOx:Facility [kg] !Monthly [Value,Min,Day,Hour,Minute,Max,Day,Hour,Minute]
2889,9,N2O:Facility [kg] !Monthly [Value,Min,Day,Hour,Minute,Max,Day,Hour,Minute]
2914,9,SO2:Facility [kg] !Monthly [Value,Min,Day,Hour,Minute,Max,Day,Hour,Minute]
2939,9,PM:Facility [kg] !Monthly [Value,Min,Day,Hour,Minute,Max,Day,Hour,Minute]
2964,9,PM10:Facility [kg] !Monthly [Value,Min,Day,Hour,Minute,Max,Day,Hour,Minute]
2989,9,PM2.5:Facility [kg] !Monthly [Value,Min,Day,Hour,Minute,Max,Day,Hour,Minute]
3014,9,NH3:Facility [kg] !Monthly [Value,Min,Day,Hour,Minute,Max,Day,Hour,Minute]
3039,9,NMVOC:Facility [kg] !Monthly [Value,Min,Day,Hour,Minute,Max,Day,Hour,Minute]
3064,9,Hg:Facility [kg] !Monthly [Value,Min,Day,Hour,Minute,Max,Day,Hour,Minute]
3089,9,Pb:Facility [kg] !Monthly [Value,Min,Day,Hour,Minute,Max,Day,Hour,Minute]
3114,9,WaterEnvironmentalFactors:Facility [L] !Monthly [Value,Min,Day,Hour,Minute,Max,Day,Hour,Minute]
3139,9,Nuclear High:Facility [kg] !Monthly [Value,Min,Day,Hour,Minute,Max,Day,Hour,Minute]
3164,9,Nuclear Low:Facility [m3] !Monthly [Value,Min,Day,Hour,Minute,Max,Day,Hour,Minute]
3878,9,Carbon Equivalent:Facility [kg] !Monthly [Value,Min,Day,Hour,Minute,Max,Day,Hour,Minute]
End of Data Dictionary
1,CHICAGO ANN HTG 99.6% CONDNS DB,  41.98, -87.92,  -6.00, 201.00
2,1, 1,21, 0, 1, 0.00,60.00,WinterDesignDay
1062,18.694046012214394
1068,16.941470629204344
1074,15.424426878715345
1080,16.715787003462375
1086,16.361587074739405
1092,16.417071514061385
1098,16.46385561367841
1104,16.399425849770244
1110,15.155434111003953
1116,15.406041740257436
1122,15.376708833070293
1128,15.412442404505395
1134,14.101355942465903
1140,15.730037797580927
1146,15.445959760529277
1152,15.835788477548599
1158,13.908965505563874
1164,12.195639023596705
1170,2.798339270236361
1063,0.0
1064,-3634.9894619738145
1065,0.0
1066,0.0
1067,3649.2510275131796
1069,29.828290073181596
1070,-7024.804290959154
1071,0.0
1072,0.0
1073,7005.8267283477539
1075,31.25083085804683
1076,-14361.521785546312
1077,0.0
1078,0.0
1079,143522.18165044453
1081,29.9892931345039
1082,-46943.46443830416
1083,0.0
1084,-39918.26311218924
1085,86598.503407431
1087,0.0
1088,-9250.864548365415
1089,0.0
1090,-3030.7996607373299
1091,12279.340792625815
1093,0.0
1094,-6434.737093552496
1095,0.0
1096,-2033.734949011317
1097,8467.753845785379
1099,0.0
1100,-9670.834090664968
1101,0.0
1102,-3039.1857300286776
1103,12708.523268914583
1105,0.0
1106,-6410.967292163357
1107,0.0
1108,-2032.7654663021559
1109,8443.123933686653
1111,0.0
1112,-11881.71807458263
1113,0.0
1114,-2943.9579400686159
1115,148231.61720370924
1117,0.0
1118,-8137.806176922461
1119,0.0
1120,-1986.276966174667
1121,101236.332305878
1123,0.0
1124,-12348.526426325905
1125,0.0
1126,-2962.111832183573
1127,153094.18493335288
1129,0.0
1130,-8301.514670621978
1131,0.0
1132,-1986.628808962353
1133,102879.22934922348
1135,0.0
1136,-14170.499046496927
1137,0.0
1138,-7470.835725872217
1139,21616.907556592236
1141,0.0
1142,-10749.374813473607
1143,0.0
1144,-5115.0935038940419
1145,15851.619224983191
1147,0.0
1148,-16057.401731020938
1149,0.0
1150,-7757.976865601391
1151,23794.075663586544
1153,0.0
1154,-11057.966122594044
1155,0.0
1156,-5129.867789849002
1157,16175.612480065303
1159,0.0
1160,4006.9362059436077
1161,0.0
1162,-4006.8627421612948
1163,0.0
1165,0.0
1166,3826.98061271965
1167,0.0
1168,-3824.897593541653
1169,0.0
1171,0.0
1172,37986.81785589474
1173,0.0
1174,-38137.92811415928
1175,0.0
2750,39.02980333381877
2751,1.0028535445284764
110,868708558.4215994
122,0.0
915,4952279505.341795
2180,868708558.4215993
2494,190300490.40636093
2,1, 1,21, 0, 2, 0.00,60.00,WinterDesignDay
1062,18.698877675820979
1068,16.946028546710964
1074,15.433533184471927
1080,16.61813099918234
1086,16.353919079114428
1092,16.413382194353149
1098,16.458911690682539
1104,16.39629487928356
1110,15.147118355228017
1116,15.403697506637208
1122,15.3726559414152
1128,15.41126497432044
1134,14.019728754314649
1140,15.663246430384254
1146,15.374587331524934
1152,15.772271770195097
1158,13.909070021336023
1164,12.197113316673379
1170,2.7030560865759858
1063,0.0
1064,-3627.7280207904025
1065,0.0
1066,0.0
1067,3641.2011594820207
1069,29.823913591010947
1070,-7008.510495487986
1071,0.0
1072,0.0
1073,6988.922493196392
1075,31.242000189087553
1076,-14325.561231993997
1077,0.0
1078,0.0
1079,143147.25722998903
1081,30.083827066396809
1082,-47688.01101855487
1083,0.0
1084,-39814.581407976264
1085,87254.05950998004
1087,0.0
1088,-9256.045901883756
1089,0.0
1090,-3030.170881414736
1091,12284.191217949097
1093,0.0
1094,-6437.346956838073
1095,0.0
1096,-2033.532251532396
1097,8470.268304980269
1099,0.0
1100,-9675.323945874114
1101,0.0
1102,-3038.780325969476
1103,12712.81744094207
1105,0.0
1106,-6413.305367704683
1107,0.0
1108,-2032.5934454759827
1109,8445.384807071663
1111,0.0
1112,-11888.238816738416
1113,0.0
1114,-2943.275696151186
1115,148292.98769361786
1117,0.0
1118,-8139.603009214798
1119,0.0
1120,-1986.1481042847168
1121,101253.7168975833
1123,0.0
1124,-12352.638222598709
1125,0.0
1126,-2961.779323539237
1127,153133.65472843656
1129,0.0
1130,-8302.475707805981
1131,0.0
1132,-1986.5640859425958
1133,102888.64330466745
1135,0.0
1136,-14241.663981268228
1137,0.0
1138,-7453.404179476344
1139,21672.308657156238
1141,0.0
1142,-10809.307843793566
1143,0.0
1144,-5105.7621713807379
1145,15903.163608995023
1147,0.0
1148,-16143.110829590289
1149,0.0
1150,-7742.735230605096
1151,23866.067008131162
1153,0.0
1154,-11119.670763961894
1155,0.0
1156,-5120.993955679378
1157,16229.349947055616
1159,0.0
1160,4007.0998578257447
1161,0.0
1162,-4006.874873333185
1163,0.0
1165,0.0
1166,3827.306466275981
1167,0.0
1168,-3825.0688024315797
1169,0.0
1171,0.0
1172,37846.112497711874
1173,0.0
1174,-37984.55844654866
1175,0.0
2750,39.02988421578846
2751,1.0028535445284764
110,867800007.491828
122,0.0
915,4952284913.6463589
2180,867800007.4918279
2494,190300490.40636093
2,1, 1,21, 0, 3, 0.00,60.00,WinterDesignDay
1062,18.703447202836693
1068,16.950328458398915
1074,15.442011592519045
1080,16.526566188053758
1086,16.347226817593673
1092,16.4102396974813
1098,16.454656480243647
1104,16.39364782372477
1110,15.139785598861474
1116,15.401718584826572
1122,15.369158997261538
1128,15.41032463231592
1134,13.943513604189157
1140,15.601205376128622
1146,15.30817067425299
1152,15.713321213550192
1158,13.909268545356476
1164,12.198685019807295
1170,2.615391160743256
1063,0.0
1064,-3620.8373222218349
1065,0.0
1066,0.0
1067,3633.586660371234
1069,29.81976855721415
1070,-6993.170549634007
1071,0.0
1072,0.0
1073,6972.998144903217
1075,31.23377690474046
1076,-14292.033320401832
1077,0.0
1078,0.0
1079,142798.1711567657
1081,30.172329969976585
1082,-48386.61664042675
1083,0.0
1084,-39717.36674377058
1085,87868.7138770349
1087,0.0
1088,-9260.570902111926
1089,0.0
1090,-3029.6221127571295
1091,12288.426590686966
1093,0.0
1094,-6439.571042778114
1095,0.0
1096,-2033.3595974270823
1097,8472.412342293072
1099,0.0
1100,-9679.189833558265
1101,0.0
1102,-3038.431396670593
1103,12716.516433126704
1105,0.0
1106,-6415.282798610075
1107,0.0
1108,-2032.4480117562833
1109,8447.29855492528
1111,0.0
1112,-11893.988314599086
1113,0.0
1114,-2942.674099788346
1115,148347.10752185223
1117,0.0
1118,-8141.116303378787
1119,0.0
1120,-1986.0393234864285
1121,101268.38837061377
1123,0.0
1124,-12356.181948887846
1125,0.0
1126,-2961.4924261191215
1127,153167.70965674523
1129,0.0
1130,-8303.238066581682
1131,0.0
1132,-1986.5123955961829
1133,102896.15406932197
1135,0.0
1136,-14308.203986874647
1137,0.0
1138,-7437.128377803265
1139,21724.04169062075
1141,0.0
1142,-10865.029234977437
1143,0.0
1144,-5097.09449873031
1145,15951.043001949065
1147,0.0
1148,-16222.950046106165
1149,0.0
1150,-7728.5519043272229
1151,23933.06226042306
1153,0.0
1154,-11176.988159839006
1155,0.0
1156,-5112.758052313629
1157,16279.224841386265
1159,0.0
1160,4007.249159236215
1161,0.0
1162,-4006.8979160660358
1163,0.0
1165,0.0
1166,3827.622295127575
1167,0.0
1168,-3825.251323500905
1169,0.0
1171,0.0
1172,37715.533458494276
1173,0.0
1174,-37843.4512750671
1175,0.0
2750,39.02994410684468
2751,1.0028535445284764
110,866963975.3311471
122,0.0
915,4960106202.316315
2180,866963975.3311471
2494,190300490.40636093
2,1, 1,21, 0, 4, 0.00,60.00,WinterDesignDay
1062,18.70777414513495
1068,16.954380594469169
1074,15.449919929752748
1080,16.440554959962289
1086,16.341388966838566
1092,16.40757068619557
1098,16.451001396195335
1104,16.39141878596225
1110,15.133323284776717
1116,15.400062895196362
1122,15.366153921726673
1128,15.409594737995488
1134,13.87213872900185
1140,15.543387615058539
1146,15.246174445885075
1152,15.658426210676855
1158,13.909548721685497
1164,12.200342287309383
1170,2.534192307793812
1063,0.0
1064,-3614.2413909962226
1065,0.0
1066,0.0
1067,3626.330511546634
1069,29.81585193965213
1070,-6978.712759571983
1071,0.0
1072,0.0
1073,6957.988895478062
1075,31.226103872798235
1076,-14260.725571295776
1077,0.0
1078,0.0
1079,142472.54169821187
1081,30.255390186486428
1082,-49043.1113026182
1083,0.0
1084,-39626.04833712758
1085,88446.07957230568
1087,0.0
1088,-9264.51594495347
1089,0.0
1090,-3029.143406192503
1091,12292.121525273707
1093,0.0
1094,-6441.456942681905
1095,0.0
1096,-2033.212957422525
1097,8474.232424572156
1099,0.0
1100,-9682.50654314967
1101,0.0
1102,-3038.131678023853
1103,12719.693101018696
1105,0.0
1106,-6416.94446871547
1107,0.0
1108,-2032.325544642936
1109,8448.9089485062
1111,0.0
1112,-11899.054626042569
1113,0.0
1114,-2942.1439165319304
1115,148394.81185126038
1117,0.0
1118,-8142.379252982191
1119,0.0
1120,-1985.9483106739349
1121,101280.66073003426
1123,0.0
1124,-12359.223756210065
1125,0.0
1126,-2961.24588274287
1127,153196.97679660496
1129,0.0
1130,-8303.824801190007
1131,0.0
1132,-1986.4722735022147
1133,102901.97683290886
1135,0.0
1136,-14370.568312527035
1137,0.0
1138,-7421.88622042279
1139,21772.49344281506
1141,0.0
1142,-10916.985390295356
1143,0.0
1144,-5089.016856718116
1145,15995.663925834711
1147,0.0
1148,-16297.519725394486
1149,0.0
1150,-7715.312563910866
1151,23995.600777186035
1153,0.0
1154,-11230.389111081207
1155,0.0
1156,-5105.0887449371
1157,16325.66905847323
1159,0.0
1160,4007.3943896380126
1161,0.0
1162,-4006.9304362028249
1163,0.0
1165,0.0
1166,3827.9325938151434
1167,0.0
1168,-3825.443781115903
1169,0.0
1171,0.0
1172,37593.942726853566
1173,0.0
1174,-37712.75202039475
1175,0.0
2750,39.02998844244572
2751,1.0028535445284764
110,866191988.5222743
122,0.0
915,4952293849.969051
2180,866191988.5222743
2494,190300490.40636093
2,1, 1,21, 0, 5, 0.00,60.00,WinterDesignDay
1062,18.711877949042589
1068,16.958198039606388
1074,15.457304087116644
1080,16.35975020319875
1086,16.336309328666123
1092,16.405317399106129
1098,16.447875557809224
1104,16.38955593950432
1110,15.12763674486271
1116,15.398693004326379
1122,15.363584859300069
1128,15.409050372416838
1134,13.805233477154289
1140,15.489442612855023
1146,15.188244727133979
1152,15.607246141218095
1158,13.90990140281776
1164,12.202072281020989
1170,2.4587499725678314
1063,0.0
1064,-3607.9984037812785
1065,0.0
1066,0.0
1067,3619.4486958432246
1069,29.81217901469381
1070,-6965.128184358844
1071,0.0
1072,0.0
1073,6943.846969158526
1075,31.218958706043165
1076,-14231.55367089617
1077,0.0
1078,0.0
1079,142168.4816871136
1081,30.33347825659427
1082,-49658.69326146868
1083,0.0
1084,-39540.25765839229
1085,88988.4898843001
1087,0.0
1088,-9267.940638821237
1089,0.0
1090,-3028.726873423667
1091,12295.336978167528
1093,0.0
1094,-6443.044398659657
1095,0.0
1096,-2033.089158010049
1097,8475.768163567389
1099,0.0
1100,-9685.33572615916
1101,0.0
1102,-3037.8753577755007
1103,12722.409245872148
1105,0.0
1106,-6418.32832232699
1107,0.0
1108,-2032.2231967006317
1109,8450.253699730634
1111,0.0
1112,-11903.50650266606
1113,0.0
1114,-2941.67737959024
1115,148436.79846909963
1117,0.0
1118,-8143.420586845954
1119,0.0
1120,-1985.8730081422212
1121,101290.81192750171
1123,0.0
1124,-12361.818951061889
1125,0.0
1126,-2961.0351108946736
1127,153221.99986666267
1129,0.0
1130,-8304.2570916738
1131,0.0
1132,-1986.4423498731517
1133,102906.31164080693
1135,0.0
1136,-14428.942500550704
1137,0.0
1138,-7407.598554411959
1139,21817.914211841875
1141,0.0
1142,-10965.416663614316
1143,0.0
1144,-5081.480272663627
1145,16037.296677378898
1147,0.0
1148,-16367.122593742428
1149,0.0
1150,-7702.941629630508
1151,24054.03890015684
1153,0.0
1154,-11280.133236128571
1155,0.0
1156,-5097.938445935622
1157,16368.970652264295
1159,0.0
1160,4007.5251101383848
1161,0.0
1162,-4006.9713719903127
1163,0.0
1165,0.0
1166,3828.207812222676
1167,0.0
1168,-3825.6446843878736
1169,0.0
1171,0.0
1172,37481.58836026686
1173,0.0
1174,-37591.31856873114
1175,0.0
2750,39.030021255764847
2751,1.0028535445284764
110,865477886.2436466
122,0.0
915,4960116879.934982
2180,865477886.2436466
2494,190300490.40636093
2,1, 1,21, 0, 6, 0.00,60.00,WinterDesignDay
1062,18.715763900447244
1068,16.962454713876807
1074,15.464806591180555
1080,16.285003815193265
1086,16.331916816338265
1092,16.403430299865894
1098,16.445221027964306
1104,16.3880133699993
1110,15.122654132988533
1116,15.397570875423675
1122,15.361401320784504
1128,15.408661421080096
1134,13.743001999537574
1140,15.439490926294126
1146,15.13452912939361
1152,15.559890779086438
1158,13.910314262839883
1164,12.203839467850399
1170,2.3896678820787224
1063,0.0
1064,-3602.0764334275106
1065,0.0
1066,0.0
1067,3612.9787715515087
1069,43.22224230924883
1070,-6960.58084340347
1071,0.0
1072,0.0
1073,6928.062220557178
1075,45.25726276850894
1076,-14213.299496839842
1077,0.0
1078,0.0
1079,141859.9809703182
1081,44.09318506531385
1082,-50241.059290743055
1083,0.0
1084,-39460.89916989679
1085,89490.47033797039
1087,0.0
1088,-9270.888343635648
1089,0.0
1090,-3028.3666853039705
1091,12298.104101852823
1093,0.0
1094,-6444.357287930544
1095,0.0
1096,-2032.9854775787717
1097,8477.04018919372
1099,0.0
1100,-9687.717458683874
1101,0.0
1102,-3037.657685053798
1103,12724.697509761438
1105,0.0
1106,-6419.456428957742
1107,0.0
1108,-2032.1384453170559
1109,8451.352293581138
1111,0.0
1112,-11907.398838130983
1113,0.0
1114,-2941.268594539829
1115,148473.49351894333
1117,0.0
1118,-8144.260635711633
1119,0.0
1120,-1985.8113250190364
1121,101299.0444751653
1123,0.0
1124,-12364.008856915703
1125,0.0
1126,-2960.855968323528
1127,153243.1534246479
1129,0.0
1130,-8304.549340249354
1131,0.0
1132,-1986.4209693230569
1133,102909.31825955687
1135,0.0
1136,-14483.289717454363
1137,0.0
1138,-7394.308976344548
1139,21860.156918746274
1141,0.0
1142,-11010.288181010183
1143,0.0
1144,-5074.501589392666
1145,16075.839659660414
1147,0.0
1148,-16431.706648589934
1149,0.0
1150,-7691.470624008481
1151,24108.215711623947
1153,0.0
1154,-11326.183822880006
1155,0.0
1156,-5091.322491675586
1157,16409.02779515568
1159,0.0
1160,4007.726760133976
1161,0.0
1162,-4007.0192927566415
1163,0.0
1165,0.0
1166,3828.5521258551896
1167,0.0
1168,-3825.849906877312
1169,0.0
1171,0.0
1172,37378.84103853509
1173,0.0
1174,-37480.122690831784
1175,0.0
2750,39.03002096095675
2751,1.0028535445284764
110,864850587.34119
122,0.0
915,4960145723.29096
2180,864850587.3411901
2494,190300490.40636093
2,1, 1,21, 0, 7, 0.00,60.00,WinterDesignDay
1062,18.71920981119138
1068,16.96809246824269
1074,15.473302510575909
1080,17.265760158462994
1086,16.925883712123633
1092,16.955216041875315
1098,17.005524038906047
1104,16.93233511862313
1110,15.658965029468384
1116,15.905543840798709
1122,15.872383621233345
1128,15.906419791720382
1134,15.012900750521127
1140,16.62269819245503
1146,16.346399162902768
1152,16.71794052586195
1158,13.92034608933484
1164,12.214866768036737
1170,2.432046265648846
1063,0.0
1064,-3591.266174760407
1065,0.0
1066,0.0
1067,3607.16761151148
1069,43.21593166023703
1070,-6922.461761082686
1071,0.0
1072,0.0
1073,6907.060855857182
1075,45.24666771358389
1076,-14158.716232771952
1077,0.0
1078,0.0
1079,141509.02557087528
1081,43.28015924148179
1082,-68346.25577866842
1083,0.0
1084,-10125.542859544374
1085,82907.2945782714
1087,0.0
1088,-10825.02617828559
1089,0.0
1090,-769.268063979342
1091,11922.880852955524
1093,0.0
1094,-7392.9088586809689
1095,0.0
1096,-515.8253804085821
1097,8099.3935204298099
1099,0.0
1100,-11161.82800157162
1101,0.0
1102,-770.9007002370603
1103,12237.139949395729
1105,0.0
1106,-7353.231496985305
1107,0.0
1108,-515.5111012307533
1109,8056.130540659711
1111,0.0
1112,-13413.76332389323
1113,0.0
1114,-746.3171965209651
1115,144525.34816921573
1117,0.0
1118,-9076.137197901464
1119,0.0
1120,-503.4336154860099
1121,97526.9965757994
1123,0.0
1124,-13802.78978687475
1125,0.0
1126,-750.6945357557036
1127,148270.84002908827
1129,0.0
1130,-9219.166815853168
1131,0.0
1132,-503.44565318249809
1133,98912.30277846164
1135,0.0
1136,-18383.748859841256
1137,0.0
1138,-1916.3741984379515
1139,20997.90332346276
1141,0.0
1142,-13452.662926491465
1143,0.0
1144,-1309.9514732173512
1145,15162.65397018815
1147,0.0
1148,-20253.269820146255
1149,0.0
1150,-1987.5665914712022
1151,22885.627353815755
1153,0.0
1154,-13727.417889910594
1155,0.0
1156,-1313.2780179478476
1157,15429.225023319657
1159,0.0
1160,4045.1509555778768
1161,0.0
1162,-4008.183689374283
1163,0.0
1165,0.0
1166,3866.2637144356715
1167,0.0
1168,-3827.1305015254686
1169,0.0
1171,0.0
1172,37789.511389749634
1173,0.0
1174,-37548.33576214552
1175,0.0
2750,39.02983811916678
2751,1.0028535445284764
110,894488260.7586223
122,0.0
915,4960152822.987486
2180,894488260.7586223
2494,190300490.40636093
2,1, 1,21, 0, 8, 0.00,60.00,WinterDesignDay
1062,18.42279834380472
1068,16.68156573752298
1074,15.07022185018188
1080,18.496226965296697
1086,16.95263062393368
1092,16.816971431228276
1098,16.93114733801865
1104,16.769443140700479
1110,15.586259865666524
1116,15.644961395358394
1122,15.683001566290681
1128,15.607374915590368
1134,15.43348634100596
1140,16.96949405286234
1146,16.716861798805487
1152,17.04781353678935
1158,13.93032742011434
1164,12.218803264335069
1170,2.744809224969425
1063,0.0
1064,917.7339890198757
1065,0.0
1066,0.0
1067,-1737.628489227227
1069,59.953481360606819
1070,-3412.416562479163
1071,0.0
1072,0.0
1073,2672.904844426759
1075,62.89495096047784
1076,-8816.015808260057
1077,0.0
1078,0.0
1079,77732.25075434124
1081,19316.655701690182
1082,-80556.18521020272
1083,0.0
1084,-10452.14053382612
1085,74327.70223043162
1087,0.0
1088,-10586.58133445624
1089,0.0
1090,-769.8163788816953
1091,11334.440809159052
1093,0.0
1094,-6950.442755885292
1095,0.0
1096,-513.9265320931306
1097,7421.222158478151
1099,0.0
1100,-10661.83645487911
1101,0.0
1102,-769.3759689419464
1103,11382.07708983374
1105,0.0
1106,-6871.394908400303
1107,0.0
1108,-513.2737108801907
1109,7337.1551037040549
1111,0.0
1112,-12885.278037753771
1113,0.0
1114,-744.8259713964527
1115,135804.1184248888
1117,0.0
1118,-8377.945044352724
1119,0.0
1120,-499.8525787969264
1121,88105.68672141113
1123,0.0
1124,-12946.206492372232
1125,0.0
1126,-746.8101998475702
1127,136099.05325628329
1129,0.0
1130,-8450.3571178598
1131,0.0
1132,-499.3360491326378
1133,88752.58317391684
1135,0.0
1136,-18674.935291938385
1137,0.0
1138,-1938.8282894094137
1139,20695.927892717504
1141,0.0
1142,-13500.124198504758
1143,0.0
1144,-1322.0640695884109
1145,14865.315790621939
1147,0.0
1148,-20397.857687429627
1149,0.0
1150,-2007.3447339379907
1151,22477.109110702542
1153,0.0