Program Version,EnergyPlus, Version 9.0.1-bb7ca4f0da, YMD=2018.11.01 16:06
1,5,Environment Title[],Latitude[deg],Longitude[deg],Time Zone[],Elevation[m]
2,8,Day of Simulation[],Month[],Day of Month[],DST Indicator[1=yes 0=no],Hour[],StartMinute[],EndMinute[],DayType
3,5,Cumulative Day of Simulation[],Month[],Day of Month[],DST Indicator[1=yes 0=no],DayType  ! When Daily Meters Requested
4,2,Cumulative Days of Simulation[],Month[]  ! When Monthly Meters Requested
5,1,Cumulative Days of Simulation[] ! When Run Period Meters Requested
6,1,Calendar Year of Simulation[] ! When Annual Meters Requested
110,1,Electricity:Facility [J] !Hourly
122,1,Electricity:Building [J] !Hourly
2180,1,ElectricityNet:Facility [J] !Hourly
2494,1,Electricity:HVAC [J] !Hourly
915,1,Gas:Facility [J] !Hourly
112,9,Electricity:Facility [J] !Monthly [Value,Min,Day,Hour,Minute,Max,Day,Hour,Minute]
917,9,Gas:Facility [J] !Monthly [Value,Min,Day,Hour,Minute,Max,Day,Hour,Minute]
2789,9,CO2:Facility [kg] !Monthly [Value,Min,Day,Hour,Minute,Max,Day,Hour,Minute]
2814,9,CO:Facility [kg] !Monthly [Value,Min,Day,Hour,Minute,Max,Day,Hour,Minute]
2839,9,CH4:Facility [kg] !Monthly [Value,Min,Day,Hour,Minute,Max,Day,Hour,Minute]
2864,9,NOx:Facility [kg] !Monthly [Value,Min,Day,Hour,Minute,Max,Day,Hour,Minute]
2889,9,N2O:Facility [kg] !Monthly [Value,Min,Day,Hour,Minute,Max,Day,Hour,Minute]
2914,9,SO2:Facility [kg] !Monthly [Value,Min,Day,Hour,Minute,Max,Day,Hour,Minute]
2939,9,PM:Facility [kg] !Monthly [Value,Min,Day,Hour,Minute,Max,Day,Hour,Minute]
2964,9,PM10:Facility [kg] !Monthly [Value,Min,Day,Hour,Minute,Max,Day,Hour,Minute]
2989,9,PM2.5:Facility [kg] !Monthly [Value,Min,Day,Hour,Minute,Max,Day,Hour,Minute]
3014,9,NH3:Facility [kg] !Monthly [Value,Min,Day,Hour,Minute,Max,Day,Hour,Minute]
3039,9,NMVOC:Facility [kg] !Monthly [Value,Min,Day,Hour,Minute,Max,Day,Hour,Minute]
3064,9,Hg:Facility [kg] !Monthly [Value,Min,Day,Hour,Minute,Max,Day,Hour,Minute]
3089,9,Pb:Facility [kg] !Monthly [Value,Min,Day,Hour,Minute,Max,Day,Hour,Minute]
3114,9,WaterEnvironmentalFactors:Facility [L] !Monthly [Value,Min,Day,Hour,Minute,Max,Day,Hour,Minute]
3139,9,Nuclear High:Facility [kg] !Monthly [Value,Min,Day,Hour,Minute,Max,Day,Hour,Minute]
3164,9,Nuclear Low:Facility [m3] !Monthly [Value,Min,Day,Hour,Minute,Max,Day,Hour,Minute]
3878,9,Carbon Equivalent:Facility [kg] !Monthly [Value,Min,Day,Hour,Minute,Max,Day,Hour,Minute]
End of Data Dictionary
1,CHICAGO ANN HTG 99.6% CONDNS DB,  41.98, -87.92,  -6.00, 201.00
2,1, 1,21, 0, 1, 0.00,60.00,WinterDesignDay
110,868708558.4215994
122,0.0
915,4952279505.341795
2180,868708558.4215993
2494,190300490.40636093
2,1, 1,21, 0, 2, 0.00,60.00,WinterDesignDay
110,867800007.491828
122,0.0
915,4952284913.6463589
2180,867800007.4918279
2494,190300490.40636093
2,1, 1,21, 0, 3, 0.00,60.00,WinterDesignDay
110,866963975.3311471
122,0.0
915,4960106202.316315
2180,866963975.3311471
2494,190300490.40636093
2,1, 1,21, 0, 4, 0.00,60.00,WinterDesignDay
110,866191988.5222743
122,0.0
915,4952293849.969051
2180,866191988.5222743
2494,190300490.40636093
2,1, 1,21, 0, 5, 0.00,60.00,WinterDesignDay
110,865477886.2436466
122,0.0
915,4960116879.934982
2180,865477886.2436466
2494,190300490.40636093
2,1, 1,21, 0, 6, 0.00,60.00,WinterDesignDay
110,864850587.34119
122,0.0
915,4960145723.29096
2180,864850587.3411901
2494,190300490.40636093
2,1, 1,21, 0, 7, 0.00,60.00,WinterDesignDay
110,894488260.7586223
122,0.0
915,4960152822.987486
2180,894488260.7586223
2494,190300490.40636093
2,1, 1,21, 0, 8, 0.00,60.00,WinterDesignDay
110,383982345.6871484
122,138666389.5872
915,7551331938.674654
2180,383982345.6871484
2494,190300490.40636093
2,1, 1,21, 0, 9, 0.00,60.00,WinterDesignDay
110,363059704.44106927
122,121333090.88880001
915,7562860830.229792
2180,363059704.4410693
2494,190300490.40636093
2,1, 1,21, 0,10, 0.00,60.00,WinterDesignDay
110,423738865.9041195
122,181999636.33319999
915,7568280543.1020159
2180,423738865.9041195
2494,190300490.40636093
2,1, 1,21, 0,11, 0.00,60.00,WinterDesignDay
110,397734713.4177456
122,155999688.28559999
915,7553125549.885073
2180,397734713.4177456
2494,190300490.40636093
2,1, 1,21, 0,12, 0.00,60.00,WinterDesignDay
110,458409691.68816307
122,216666233.73
915,7551192199.642122
2180,458409691.6881631
2494,190300490.40636093
2,1, 1,21, 0,13, 0.00,60.00,WinterDesignDay
110,423735935.1622668
122,181999636.33319999
915,7544598801.27397
2180,423735935.16226688
2494,190300490.40636093
2,1, 1,21, 0,14, 0.00,60.00,WinterDesignDay
110,354399632.97102376
122,112666441.5396
915,7541707141.040878
2180,354399632.97102376
2494,190300490.40636093
2,1, 1,21, 0,15, 0.00,60.00,WinterDesignDay
110,311059815.5413662
122,69333194.7936
915,7541539503.80678
2180,311059815.5413662
2494,190300490.40636093
2,1, 1,21, 0,16, 0.00,60.00,WinterDesignDay
110,276388998.0899501
122,34666597.3968
915,7548486948.747506
2180,276388998.0899501
2494,190300490.40636093
2,1, 1,21, 0,17, 0.00,60.00,WinterDesignDay
110,288655516.09757587
122,43333246.74600001
915,7550976869.564898
2180,288655516.09757587
2494,190300490.40636093
2,1, 1,21, 0,18, 0.00,60.00,WinterDesignDay
110,308100689.8764458
122,51999896.0952
915,7534242622.698484
2180,308100689.8764458
2494,190300490.40636093
2,1, 1,21, 0,19, 0.00,60.00,WinterDesignDay
110,874609888.3663089
122,0.0
915,4965730311.692261
2180,874609888.3663089
2494,190300490.40636093
2,1, 1,21, 0,20, 0.00,60.00,WinterDesignDay
110,871328885.422959
122,0.0
915,4960057551.89431
2180,871328885.4229589
2494,190300490.40636093
2,1, 1,21, 0,21, 0.00,60.00,WinterDesignDay
110,869247620.3665023
122,0.0
915,4960071450.106216
2180,869247620.3665023
2494,190300490.40636093
2,1, 1,21, 0,22, 0.00,60.00,WinterDesignDay
110,867876703.9312838
122,0.0
915,4960102281.239693
2180,867876703.9312838
2494,190300490.40636093
2,1, 1,21, 0,23, 0.00,60.00,WinterDesignDay
110,866738734.3171239
122,0.0
915,4960085911.562843
2180,866738734.3171239
2494,190300490.40636093
2,1, 1,21, 0,24, 0.00,60.00,WinterDesignDay
110,865675180.1439481
122,0.0
915,4952276536.013817
2180,865675180.1439481
2494,190300490.40636093
4,1, 1
112,15299224185.535305,69097247.40532233,21,16,30,226600563.50161395,21, 7,60
917,147504046888.66224,1236098786.9212497,21,19,45,1898094490.0082958,21,10,15
2789,12912.70574709672,121.87744203242574,21,16,15,141.91678697714219,21, 7,45
2814,7.6998994592621099,0.07495824732683633,21, 6,60,0.08915518318049279,21,12,15
2839,11.587934601133965,0.053628753225005539,21,16,15,0.17062623560002156,21, 7,60
2864,16.49611870607379,0.13220583899227873,21,16,15,0.19945967465921209,21, 7,60
2889,0.2791764614634594,0.00255400113721027,21,16,15,0.0031301612245096404,21, 7,45
2914,28.679678759888256,0.12985553148237206,21,16,15,0.4245275368937317,21, 7,60
2939,0.0,0.0,21, 1,15,0.0,21, 1,15
2964,0.7955930369167562,0.007972776094937847,21,16,15,0.008791742517947482,21,12,15
2989,0.0,0.0,21, 1,15,0.0,21, 1,15
3014,0.0,0.0,21, 1,15,0.0,21, 1,15
3039,0.5408846568300132,0.005428982745530796,21, 6,60,0.006110663505801539,21,12,15
3064,0.00010264527438687512,5.989988373719129e-7,21,16,15,0.0000014150106674245942,21, 7,60
3089,0.00045643080986145597,0.0000023212653952096155,21,16,15,0.000006558258691333444,21, 7,60
3114,6593.28633841188,29.777845713909124,21,16,30,97.65478180417614,21, 7,60
3139,0.0,0.0,21, 1,15,0.0,21, 1,15
3164,0.0,0.0,21, 1,15,0.0,21, 1,15
3878,3616.51962864566,33.77855288320079,21,16,15,40.01931340974051,21, 7,45
1,CHICAGO ANN CLG .4% CONDNS DB=>MWB,  41.98, -87.92,  -6.00, 201.00
2,1, 7,21, 0, 1, 0.00,60.00,SummerDesignDay
110,3039365722.8920657
122,3024964957.6799995
915,7882857.627846654
2180,3039365722.8920657
2494,0.0
2,1, 7,21, 0, 2, 0.00,60.00,SummerDesignDay
110,3664698438.0204479
122,3024964957.6799995
915,7884043.442181955
2180,3664698438.0204474
2494,38110919.061599109
2,1, 7,21, 0, 3, 0.00,60.00,SummerDesignDay
110,3651722117.7301037
122,3024964957.6799995
915,7884030.371115236
2180,3651722117.7301027
2494,38110919.061599109
2,1, 7,21, 0, 4, 0.00,60.00,SummerDesignDay
110,3643344535.62315
122,3024964957.6799995
915,7884021.197966378
2180,3643344535.623149
2494,38110919.061599109
2,1, 7,21, 0, 5, 0.00,60.00,SummerDesignDay
110,3812272881.914491
122,3024964957.6799995
915,7884009.764064463
2180,3812272881.9144909
2494,41523423.09382329
2,1, 7,21, 0, 6, 0.00,60.00,SummerDesignDay
110,4002568668.112426
122,3024964957.6799995
915,15712835.62221255
2180,4002568668.1124255
2494,46707820.92050739
2,1, 7,21, 0, 7, 0.00,60.00,SummerDesignDay
110,7815273183.953047
122,3024964957.6799995
915,7889393.315772009
2180,7815273183.953048
2494,1351840192.0224586
2,1, 7,21, 0, 8, 0.00,60.00,SummerDesignDay
110,7055159797.655482
122,3328297684.9019997
915,31488079.79908579
2180,7055159797.655482
2494,584882936.33566
2,1, 7,21, 0, 9, 0.00,60.00,SummerDesignDay
110,6460842981.0368
122,3622963762.7747995
915,55395962.88461148
2180,6460842981.0368
2494,330177627.1354264
2,1, 7,21, 0,10, 0.00,60.00,SummerDesignDay
110,6106106421.128771
122,3397630879.6955997
915,55465126.44337
2180,6106106421.128772
2494,319326235.39291909
2,1, 7,21, 0,11, 0.00,60.00,SummerDesignDay
110,6089972589.9404959
122,3345630983.6003997
915,63399328.85028052
2180,6089972589.9404959
2494,314575721.6680007
2,1, 7,21, 0,12, 0.00,60.00,SummerDesignDay
110,6156853466.32404
122,3397630879.6955997
915,71555388.28700386
2180,6156853466.324041
2494,306484003.54877659
2,1, 7,21, 0,13, 0.00,60.00,SummerDesignDay
110,6325831549.039325
122,3527630619.9335997
915,87785835.90920477
2180,6325831549.039325
2494,309126498.3332028
2,1, 7,21, 0,14, 0.00,60.00,SummerDesignDay
110,6282539500.663719
122,3440964126.4415996
915,79717041.24713838
2180,6282539500.663721
2494,310428081.8527378
2,1, 7,21, 0,15, 0.00,60.00,SummerDesignDay
110,6171383723.611538
122,3345630983.6003997
915,55380246.357036728
2180,6171383723.61154
2494,304101334.6319093
2,1, 7,21, 0,16, 0.00,60.00,SummerDesignDay
110,6114563457.221986
122,3345630983.6003997
915,47454284.02601732
2180,6114563457.221987
2494,293520060.6202924
2,1, 7,21, 0,17, 0.00,60.00,SummerDesignDay
110,6135365149.765451
122,3423630827.7431995
915,71473213.2592655
2180,6135365149.765451
2494,285990370.05864658
2,1, 7,21, 0,18, 0.00,60.00,SummerDesignDay
110,6247193973.365599
122,3562297217.3303997
915,39444779.469333257
2180,6247193973.365599
2494,289739019.06521287
2,1, 7,21, 0,19, 0.00,60.00,SummerDesignDay
110,5580601820.348182
122,3128964749.8703997
915,31504975.616974068
2180,5580601820.348183
2494,240560458.14316539
2,1, 7,21, 0,20, 0.00,60.00,SummerDesignDay
110,5376411450.208873
122,3059631555.0767996
915,23592650.0376923
2180,5376411450.208872
2494,215709052.2936382
2,1, 7,21, 0,21, 0.00,60.00,SummerDesignDay
110,5318444346.726761
122,3059631555.0767996
915,23608580.07223574
2180,5318444346.726761
2494,210451741.5960526
2,1, 7,21, 0,22, 0.00,60.00,SummerDesignDay
110,5235484934.573051
122,3024964957.6799995
915,15712500.163500213
2180,5235484934.573052
2494,207525984.01205678
2,1, 7,21, 0,23, 0.00,60.00,SummerDesignDay
110,3039365739.6471979
122,3024964957.6799995
915,7883720.705464098
2180,3039365739.6471979
2494,0.0
2,1, 7,21, 0,24, 0.00,60.00,SummerDesignDay
110,3039365743.3422358
122,3024964957.6799995
915,7883688.8245554589
2180,3039365743.342236
2494,0.0
4,1, 7
112,126364732192.84523,756243695.5139545,21, 5,45,2029794517.1673315,21, 8,15
917,831766593.293929,18000.0,21, 1,15,23941794.807545287,21,13,45
2789,43222.16402980582,258.4099019332724,21, 6,45,693.9908758228866,21, 8,15
2814,15.020044725143875,0.0896913917329415,21, 6,45,0.24104769045277664,21, 8,15
2839,94.42060956708288,0.5650663872403194,21, 6,45,1.5166708066950925,21, 8,15
2864,78.6634789302511,0.4705365771352124,21, 6,45,1.2633104561479643,21, 8,15
2889,1.015337742633053,0.006071155059110071,21, 6,45,0.016303533851481867,21, 8,15
2914,236.5550015784533,1.4156902964447396,21, 5,45,3.7997774456177479,21, 8,15
2939,0.0,0.0,21, 1,15,0.0,21, 1,15
2964,2.200468734903504,0.013151167594180884,21, 6,45,0.035326384246849789,21, 8,15
2989,0.0,0.0,21, 1,15,0.0,21, 1,15
3014,0.0,0.0,21, 1,15,0.0,21, 1,15
3039,1.28982753185359,0.007706184950494719,21, 6,45,0.02070414995125511,21, 8,15
3064,0.00071266305092731,0.000004264468339081425,21, 6,45,0.000011446884985052375,21, 8,15
3089,0.0035105894266016124,0.00002100849380655577,21, 6,45,0.000056389368251636888,21, 8,15
3114,54457.58898100691,325.90745554643356,21, 5,45,874.7513140225576,21, 8,15
3139,0.0,0.0,21, 1,15,0.0,21, 1,15
3164,0.0,0.0,21, 1,15,0.0,21, 1,15
3878,12460.921661576578,74.50297953313354,21, 6,45,200.0810714439928,21, 8,15
1,RUNPERIOD 1,  41.98, -87.92,  -6.00, 201.00
2,1, 6, 1, 1, 1, 0.00,60.00,Sunday
110,473321989.00930359
122,458922943.94400009
915,72000.0
2180,473321989.0093037
2494,0.0
2,1, 6, 1, 1, 2, 0.00,60.00,Sunday
110,473322006.1828807
122,458922943.94400009
915,7882560.634028862
2180,473322006.18288078
2494,0.0
2,1, 6, 1, 1, 3, 0.00,60.00,Sunday
110,473322008.9145178
122,458922943.94400009
915,7882564.965893345
2180,473322008.9145178
2494,0.0
2,1, 6, 1, 1, 4, 0.00,60.00,Sunday
110,473322009.3498432
122,458922943.94400009
915,7882564.106389781
2180,473322009.34984329
2494,0.0
2,1, 6, 1, 1, 5, 0.00,60.00,Sunday
110,462534796.10730639
122,458922943.94400009
915,15713264.13912374
2180,462534796.10730639
2494,0.0
2,1, 6, 1, 1, 6, 0.00,60.00,Sunday
110,458931006.65565237
122,458922943.94400009
915,7881981.823165933
2180,458931006.65565237
2494,0.0
2,1, 6, 1, 1, 7, 0.00,60.00,Sunday
110,458931006.67922946
122,458922943.94400009
915,7881981.337605343
2180,458931006.6792295
2494,0.0
2,1, 6, 1, 1, 8, 0.00,60.00,Sunday
110,458931007.8067517
122,458922943.94400009
915,7882544.092876602
2180,458931007.8067517
2494,0.0
2,1, 6, 1, 1, 9, 0.00,60.00,Sunday
110,874109041.9733994
122,458922943.94400009
915,7882542.3970920699
2180,874109041.9733994
2494,38110919.061599109
2,1, 6, 1, 1,10, 0.00,60.00,Sunday
110,1029230257.2989016
122,458922943.94400009
915,7882541.062284217
2180,1029230257.2989013
2494,41523423.09382329
2,1, 6, 1, 1,11, 0.00,60.00,Sunday
110,875389694.4655591
122,458922943.94400009
915,15706637.57245357
2180,875389694.4655591
2494,38110919.061599109
2,1, 6, 1, 1,12, 0.00,60.00,Sunday
110,874103957.6895559
122,458922943.94400009
915,7889312.329828108
2180,874103957.6895559
2494,38110919.061599109
2,1, 6, 1, 1,13, 0.00,60.00,Sunday
110,875037097.6141144
122,458922943.94400009
915,15727644.299333677
2180,875037097.6141143
2494,38110919.061599109
2,1, 6, 1, 1,14, 0.00,60.00,Sunday
110,874908491.776715
122,458922943.94400009
915,15707062.621110063
2180,874908491.7767149
2494,38110919.061599109
2,1, 6, 1, 1,15, 0.00,60.00,Sunday
110,1490149053.0802246
122,458922943.94400009
915,7882519.410241438
2180,1490149053.0802243
2494,84818739.98210649
2,1, 6, 1, 1,16, 0.00,60.00,Sunday
110,1276482003.9559355
122,458922943.94400009
915,7882517.8319449
2180,1276482003.9559355
2494,55304722.77941567
2,1, 6, 1, 1,17, 0.00,60.00,Sunday
110,1309439019.569932
122,458922943.94400009
915,7882516.536238953
2180,1309439019.5699318
2494,84818739.98210649
2,1, 6, 1, 1,18, 0.00,60.00,Sunday
110,1500962393.3943306
122,458922943.94400009
915,7882515.286211036
2180,1500962393.3943306
2494,84818739.98210649
2,1, 6, 1, 1,19, 0.00,60.00,Sunday
110,1069242370.2782709
122,458922943.94400009
915,7882514.044450756
2180,1069242370.278271
2494,46707820.92050739
2,1, 6, 1, 1,20, 0.00,60.00,Sunday
110,473322008.8029457
122,458922943.94400009
915,7882241.301399139
2180,473322008.80294576
2494,0.0
2,1, 6, 1, 1,21, 0.00,60.00,Sunday
110,473328047.44021525
122,458922943.94400009
915,7892607.536456784
2180,473328047.44021537
2494,0.0
2,1, 6, 1, 1,22, 0.00,60.00,Sunday
110,473322010.3660925
122,458922943.94400009
915,7882424.147607305
2180,473322010.36609259
2494,0.0
2,1, 6, 1, 1,23, 0.00,60.00,Sunday
110,473322009.5945313
122,458922943.94400009
915,7882421.339253826
2180,473322009.59453138
2494,0.0
2,1, 6, 1, 1,24, 0.00,60.00,Sunday
110,473322009.4720074
122,458922943.94400009
915,7882419.46216192
2180,473322009.4720074
2494,0.0
2,2, 6, 2, 1, 1, 0.00,60.00,Monday
110,596393901.6889777
122,581992822.368
915,7884368.978521796
2180,596393901.6889777
2494,0.0
2,2, 6, 2, 1, 2, 0.00,60.00,Monday
110,596393897.1873844
122,581992822.368
915,15698841.19006536
2180,596393897.1873844
2494,0.0
2,2, 6, 2, 1, 3, 0.00,60.00,Monday
110,596393896.4936985
122,581992822.368
915,7884596.937568962
2180,596393896.4936985
2494,0.0
2,2, 6, 2, 1, 4, 0.00,60.00,Monday
110,596393893.1743745
122,581992822.368
915,7885949.849217389
2180,596393893.1743745
2494,0.0
2,2, 6, 2, 1, 5, 0.00,60.00,Monday
110,1207877744.5082846
122,671706131.0399999
915,288300877.11900147
2180,1207877744.5082846
2494,20737591.30673637
2,2, 6, 2, 1, 6, 0.00,60.00,Monday
110,1996076647.5439816
122,671706131.0399999
915,566725941.0053897
2180,1996076647.5439816
2494,201559976.37918384
2,2, 6, 2, 1, 7, 0.00,60.00,Monday
110,2992477115.366126
122,1333892092.9500004
915,334071590.557507
2180,2992477115.3661258
2494,190300490.40636093
2,2, 6, 2, 1, 8, 0.00,60.00,Monday
110,5024603387.850075
122,3320467267.0068008
915,115108415.10484854
2180,5024603387.850075
2494,191089461.62940289
2,2, 6, 2, 1, 9, 0.00,60.00,Monday
110,4815708130.416979
122,3095134383.927601
915,77568741.90611664
2180,4815708130.41698
2494,194584513.4146613
2,2, 6, 2, 1,10, 0.00,60.00,Monday
110,4791228651.183806
122,3043134487.832401
915,71114452.40879488
2180,4791228651.183807
2494,195758195.6583115
2,2, 6, 2, 1,11, 0.00,60.00,Monday
110,4845696825.164947
122,3095134383.927601
915,91863774.30483504
2180,4845696825.164947
2494,194376460.56002788
2,2, 6, 2, 1,12, 0.00,60.00,Monday
110,4843319116.563759
122,3102064245.741601
915,98328590.38791572
2180,4843319116.563759
2494,194428961.05594743
2,2, 6, 2, 1,13, 0.00,60.00,Monday
110,4905244320.397626
122,3138467630.6736009
915,95937420.72137422
2180,4905244320.397626
2494,198161691.3548863
2,2, 6, 2, 1,14, 0.00,60.00,Monday
110,4825524869.6532139
122,3043134487.832401
915,55478679.29747847
2180,4825524869.6532139
2494,193922935.10562433
2,2, 6, 2, 1,15, 0.00,60.00,Monday
110,4816710416.062082
122,3043134487.832401
915,55448068.62009244
2180,4816710416.062083
2494,190628041.2778415
2,2, 6, 2, 1,16, 0.00,60.00,Monday
110,4878601472.307457
122,3121134331.9752008
915,79590897.38491538
2180,4878601472.307458
2494,193877684.81777723
2,2, 6, 2, 1,17, 0.00,60.00,Monday
110,3792886127.069961
122,2049814738.4903999
915,47392349.61483233
2180,3792886127.0699608
2494,198234399.9637189
2,2, 6, 2, 1,18, 0.00,60.00,Monday
110,2841577595.9738328
122,1134559157.9184004
915,42988724.80719558
2180,2841577595.973832
2494,190300490.40636093
2,2, 6, 2, 1,19, 0.00,60.00,Monday
110,2770421842.2301056
122,1065225963.1248001
915,23615623.42338629
2180,2770421842.2301056
2494,190300490.40636093
2,2, 6, 2, 1,20, 0.00,60.00,Monday
110,2599059319.629942
122,885799345.7808
915,31491862.08956751
2180,2599059319.629942
2494,190300490.40636093
2,2, 6, 2, 1,21, 0.00,60.00,Monday
110,2551027939.383509
122,851132748.384
915,15717598.62970101
2180,2551027939.383509
2494,190300490.40636093
2,2, 6, 2, 1,22, 0.00,60.00,Monday
110,686107209.8137564
122,671706131.0399999
915,7885826.671801553
2180,686107209.8137564
2494,0.0
2,2, 6, 2, 1,23, 0.00,60.00,Monday
110,596393891.9052914
122,581992822.368
915,7885844.087155815
2180,596393891.9052914
2494,0.0
2,2, 6, 2, 1,24, 0.00,60.00,Monday
110,596393894.5356828
122,581992822.368
915,7885290.961320411
2180,596393894.5356827
2494,0.0
2,3, 6, 3, 1, 1, 0.00,60.00,Tuesday
110,596393896.9889503
122,581992822.368
915,15696859.885862329
2180,596393896.9889503
2494,0.0
2,3, 6, 3, 1, 2, 0.00,60.00,Tuesday
110,596393889.5568988
122,581992822.368
915,7885459.929882939
2180,596393889.5568988
2494,0.0
2,3, 6, 3, 1, 3, 0.00,60.00,Tuesday
110,596393885.6220431
122,581992822.368
915,7884895.565015143
2180,596393885.622043
2494,0.0
2,3, 6, 3, 1, 4, 0.00,60.00,Tuesday
110,596393887.2443436
122,581992822.368
915,7884333.508620178
2180,596393887.2443436
2494,0.0
2,3, 6, 3, 1, 5, 0.00,60.00,Tuesday
110,675319987.315599
122,671706131.0399999
915,15717754.368615002
2180,675319987.315599
2494,0.0
2,3, 6, 3, 1, 6, 0.00,60.00,Tuesday
110,2027620400.8756872
122,671706131.0399999
915,852108149.773246
2180,2027620400.8756872
2494,193205288.74514724
2,3, 6, 3, 1, 7, 0.00,60.00,Tuesday
110,2994449288.2493317
122,1333892092.9500004
915,557575724.2333534
2180,2994449288.2493317
2494,190300490.40636093
2,3, 6, 3, 1, 8, 0.00,60.00,Tuesday
110,5039429402.191324
122,3320467267.0068008
915,289551470.68299779
2180,5039429402.191324
2494,194125090.0317933
2,3, 6, 3, 1, 9, 0.00,60.00,Tuesday
110,4892422989.802745
122,3095134383.927601
915,182671425.6328764
2180,4892422989.802744
2494,196761530.87134666
2,3, 6, 3, 1,10, 0.00,60.00,Tuesday
110,4818113305.720844
122,3043134487.832401
915,141220534.96665628
2180,4818113305.720846
2494,197758340.26941554
2,3, 6, 3, 1,11, 0.00,60.00,Tuesday
110,4865524379.698905
122,3095134383.927601
915,137352290.92893977
2180,4865524379.698904
2494,195301003.52590815
2,3, 6, 3, 1,12, 0.00,60.00,Tuesday
110,4873293455.120935
122,3102064245.741601
915,142572191.1245568
2180,4873293455.120935
2494,195668819.77684096
2,3, 6, 3, 1,13, 0.00,60.00,Tuesday
110,4919039312.9272
122,3138467630.6736009
915,95920528.91276515
2180,4919039312.9272
2494,199245949.98365567
2,3, 6, 3, 1,14, 0.00,60.00,Tuesday
110,4819177438.258591
122,3043134487.832401
915,55480461.18449423
2180,4819177438.258591
2494,198163236.01115278
2,3, 6, 3, 1,15, 0.00,60.00,Tuesday
110,4785291747.396062
122,3043134487.832401
915,55449234.132029358
2180,4785291747.396063
2494,193522303.0007363
2,3, 6, 3, 1,16, 0.00,60.00,Tuesday
110,4856979895.14619
122,3121134331.9752008
915,79591368.12116155
2180,4856979895.14619
2494,198462722.48360495
2,3, 6, 3, 1,17, 0.00,60.00,Tuesday
110,3788742872.2287218
122,2049814738.4903999
915,47388320.80110626
2180,3788742872.2287218
2494,204823723.73180879
2,3, 6, 3, 1,18, 0.00,60.00,Tuesday
110,2843926218.4023087
122,1134559157.9184004
915,37748071.97645151
2180,2843926218.4023087
2494,191123239.35947866
2,3, 6, 3, 1,19, 0.00,60.00,Tuesday
110,2773813662.308606
122,1065225963.1248001
915,31463925.69889187
2180,2773813662.3086059
2494,190300490.40636093
2,3, 6, 3, 1,20, 0.00,60.00,Tuesday
110,2605328228.8142607
122,885799345.7808
915,27229522.764392806
2180,2605328228.8142597
2494,190300490.40636093
2,3, 6, 3, 1,21, 0.00,60.00,Tuesday
110,2572561678.0992815
122,851132748.384
915,12136804.232053163
2180,2572561678.0992815
2494,190300490.40636093
2,3, 6, 3, 1,22, 0.00,60.00,Tuesday
110,686107199.4350116
122,671706131.0399999
915,15698460.158531083
2180,686107199.4350116
2494,0.0
2,3, 6, 3, 1,23, 0.00,60.00,Tuesday
110,596393893.6443578
122,581992822.368
915,7885938.12514339
2180,596393893.6443577
2494,0.0
2,3, 6, 3, 1,24, 0.00,60.00,Tuesday
110,596393881.9764996
122,581992822.368
915,7885366.736856789
2180,596393881.9764996
2494,0.0
2,4, 6, 4, 1, 1, 0.00,60.00,Wednesday
110,596393879.8880314
122,581992822.368
915,7884764.815164242
2180,596393879.8880314
2494,0.0
2,4, 6, 4, 1, 2, 0.00,60.00,Wednesday
110,596393887.729862
122,581992822.368
915,7884176.010641506
2180,596393887.729862
2494,0.0
2,4, 6, 4, 1, 3, 0.00,60.00,Wednesday
110,596393883.5536106
122,581992822.368
915,15698376.642049948
2180,596393883.5536105
2494,0.0
2,4, 6, 4, 1, 4, 0.00,60.00,Wednesday
110,596393884.311338
122,581992822.368
915,7884319.995134251
2180,596393884.311338
2494,0.0
2,4, 6, 4, 1, 5, 0.00,60.00,Wednesday
110,675319977.6571937
122,671706131.0399999
915,15719631.548603986
2180,675319977.6571937
2494,0.0
2,4, 6, 4, 1, 6, 0.00,60.00,Wednesday
110,2371560869.030696
122,671706131.0399999
915,687873532.3419526
2180,2371560869.030696
2494,190669736.39562948
2,4, 6, 4, 1, 7, 0.00,60.00,Wednesday
110,3038641930.6535828
122,1333892092.9500004
915,437160259.4439297
2180,3038641930.6535828
2494,190300490.40636093
2,4, 6, 4, 1, 8, 0.00,60.00,Wednesday
110,5041141016.653478
122,3320467267.0068008
915,153152560.07144586
2180,5041141016.653478
2494,193808362.64849378
2,4, 6, 4, 1, 9, 0.00,60.00,Wednesday
110,4870565383.316813
122,3095134383.927601
915,104114194.2471371
2180,4870565383.316813
2494,195592702.37132169
2,4, 6, 4, 1,10, 0.00,60.00,Wednesday
110,4854016385.923913
122,3043134487.832401
915,66694664.08318728
2180,4854016385.923914
2494,196600723.32622446
2,4, 6, 4, 1,11, 0.00,60.00,Wednesday
110,4904227043.504521
122,3095134383.927601
915,79673695.67071533
2180,4904227043.504521
2494,195988212.54618398
2,4, 6, 4, 1,12, 0.00,60.00,Wednesday
110,4916368847.176455
122,3102064245.741601
915,96060238.57956003
2180,4916368847.176455
2494,200350434.86419729
2,4, 6, 4, 1,13, 0.00,60.00,Wednesday
110,4930520707.993441
122,3138467630.6736009
915,95934806.61610326
2180,4930520707.993441
2494,198077974.5908143
2,4, 6, 4, 1,14, 0.00,60.00,Wednesday
110,4826139858.887584
122,3043134487.832401
915,63376477.1957178
2180,4826139858.887584
2494,193843936.88511137
2,4, 6, 4, 1,15, 0.00,60.00,Wednesday
110,4838827033.246864
122,3043134487.832401
915,55445443.58979676
2180,4838827033.246864
2494,195523856.8852231
2,4, 6, 4, 1,16, 0.00,60.00,Wednesday
110,4919112380.255052
122,3121134331.9752008
915,71614327.1903265
2180,4919112380.255052
2494,198655680.93487499
2,4, 6, 4, 1,17, 0.00,60.00,Wednesday
110,3825432716.010226
122,2049814738.4903999
915,47387091.876528728
2180,3825432716.010226
2494,201777529.02062253
2,4, 6, 4, 1,18, 0.00,60.00,Wednesday
110,2851565681.8040978
122,1134559157.9184004
915,39875881.583730179
2180,2851565681.804097
2494,190304145.70066906
2,4, 6, 4, 1,19, 0.00,60.00,Wednesday
110,2776084066.664499
122,1065225963.1248001
915,23614666.242970587
2180,2776084066.6644985
2494,190300490.40636093
2,4, 6, 4, 1,20, 0.00,60.00,Wednesday
110,2606121647.6173169
122,885799345.7808
915,31484298.580798314
2180,2606121647.6173169
2494,190300490.40636093
2,4, 6, 4, 1,21, 0.00,60.00,Wednesday
110,2570468225.232993
122,851132748.384
915,15718700.362833966
2180,2570468225.2329928
2494,190300490.40636093
2,4, 6, 4, 1,22, 0.00,60.00,Wednesday
110,686107186.6099837
122,671706131.0399999
915,7885682.733856135
2180,686107186.6099837
2494,0.0
2,4, 6, 4, 1,23, 0.00,60.00,Wednesday
110,596393878.2930009
122,581992822.368
915,7884407.576611786
2180,596393878.2930009
2494,0.0
2,4, 6, 4, 1,24, 0.00,60.00,Wednesday
110,596393884.3079318
122,581992822.368
915,7885718.904682871
2180,596393884.3079318
2494,0.0
2,5, 6, 5, 1, 1, 0.00,60.00,Thursday
110,596393878.7716571
122,581992822.368
915,15697610.178901293
2180,596393878.7716571
2494,0.0
2,5, 6, 5, 1, 2, 0.00,60.00,Thursday
110,596393879.2818611
122,581992822.368
915,7885783.774678393
2180,596393879.2818611
2494,0.0
2,5, 6, 5, 1, 3, 0.00,60.00,Thursday
110,596393868.3770977
122,581992822.368
915,7885181.30507542
2180,596393868.3770976
2494,0.0
2,5, 6, 5, 1, 4, 0.00,60.00,Thursday
110,596393872.9807652
122,581992822.368
915,7884587.00728882
2180,596393872.9807652
2494,0.0
2,5, 6, 5, 1, 5, 0.00,60.00,Thursday
110,675319964.0861143
122,671706131.0399999
915,15716490.755597946
2180,675319964.0861143
2494,0.0
2,5, 6, 5, 1, 6, 0.00,60.00,Thursday
110,2448144876.925026
122,671706131.0399999
915,663505222.5661944
2180,2448144876.925025
2494,190300490.40636093
2,5, 6, 5, 1, 7, 0.00,60.00,Thursday
110,3049040811.219128
122,1333892092.9500004
915,511803337.1518364
2180,3049040811.219128
2494,190300490.40636093
2,5, 6, 5, 1, 8, 0.00,60.00,Thursday
110,5031313765.059298
122,3320467267.0068008
915,268620295.57576009
2180,5031313765.059298
2494,193368155.28194336
2,5, 6, 5, 1, 9, 0.00,60.00,Thursday
110,4803690924.938331
122,3095134383.927601
915,188418673.1157539
2180,4803690924.938331
2494,191713501.05765439
2,5, 6, 5, 1,10, 0.00,60.00,Thursday
110,4752015781.712696
122,3043134487.832401
915,174139554.97895748
2180,4752015781.712696
2494,191767266.7704639
2,5, 6, 5, 1,11, 0.00,60.00,Thursday
110,4826963473.759658
122,3095134383.927601
915,172798342.73950083
2180,4826963473.759659
2494,191843574.12506176
2,5, 6, 5, 1,12, 0.00,60.00,Thursday
110,4983192337.05097
122,3102064245.741601
915,195390991.63824005
2180,4983192337.05097
2494,194797560.4540994
2,5, 6, 5, 1,13, 0.00,60.00,Thursday
110,5031575809.958661
122,3138467630.6736009
915,97616128.67516092
2180,5031575809.958661
2494,193697590.6311697
2,5, 6, 5, 1,14, 0.00,60.00,Thursday
110,4879342107.662012
122,3043134487.832401
915,63380820.806721199
2180,4879342107.662012
2494,191260481.31402797
2,5, 6, 5, 1,15, 0.00,60.00,Thursday
110,4872296967.368856
122,3043134487.832401
915,55444926.46093453
2180,4872296967.368857
2494,191660608.28951288
2,5, 6, 5, 1,16, 0.00,60.00,Thursday
110,4895106689.194762
122,3121134331.9752008
915,71616661.19548583
2180,4895106689.194762
2494,198790031.87817837
2,5, 6, 5, 1,17, 0.00,60.00,Thursday
110,3769354126.8861696
122,2049814738.4903999
915,54707539.20754113
2180,3769354126.8861696
2494,203815516.70151908
2,5, 6, 5, 1,18, 0.00,60.00,Thursday
110,2782572563.675804
122,1134559157.9184004
915,141065042.1876317
2180,2782572563.6758038
2494,191594876.631566
2,5, 6, 5, 1,19, 0.00,60.00,Thursday
110,2590441956.932524
122,1065225963.1248001
915,23616416.864987658
2180,2590441956.9325234
2494,190300490.40636093
2,5, 6, 5, 1,20, 0.00,60.00,Thursday
110,2224788992.488167
122,885799345.7808
915,31492901.630666768
2180,2224788992.4881665
2494,190300490.40636093
2,5, 6, 5, 1,21, 0.00,60.00,Thursday
110,2054165634.8367894
122,851132748.384
915,15718866.41728348
2180,2054165634.8367897
2494,190300490.40636093
2,5, 6, 5, 1,22, 0.00,60.00,Thursday
110,686107185.9551072
122,671706131.0399999
915,7885835.109313963
2180,686107185.9551072
2494,0.0
2,5, 6, 5, 1,23, 0.00,60.00,Thursday
110,596393871.9945955
122,581992822.368
915,7884543.123642138
2180,596393871.9945955
2494,0.0
2,5, 6, 5, 1,24, 0.00,60.00,Thursday
110,596393879.2679477
122,581992822.368
915,7885834.934981641
2180,596393879.2679477
2494,0.0
2,6, 6, 6, 1, 1, 0.00,60.00,Friday
110,596393870.4960809
122,581992822.368
915,15697789.935219478
2180,596393870.4960809
2494,0.0
2,6, 6, 6, 1, 2, 0.00,60.00,Friday
110,596393873.2211175
122,581992822.368
915,7883452.4984798