Program Version,EnergyPlus, Version 9.1.0-08d2e308bb, YMD=2019.06.17 15:42
1,5,Environment Title[],Latitude[deg],Longitude[deg],Time Zone[],Elevation[m]
2,8,Day of Simulation[],Month[],Day of Month[],DST Indicator[1=yes 0=no],Hour[],StartMinute[],EndMinute[],DayType
3,5,Cumulative Day of Simulation[],Month[],Day of Month[],DST Indicator[1=yes 0=no],DayType  ! When Daily Meters Requested
4,2,Cumulative Days of Simulation[],Month[]  ! When Monthly Meters Requested
5,1,Cumulative Days of Simulation[] ! When Run Period Meters Requested
6,1,Calendar Year of Simulation[] ! When Annual Meters Requested
74,1,Electricity:Facility [J] !Hourly
2054,1,ElectricityNet:Facility [J] !Hourly
843,1,Gas:Facility [J] !Hourly
110,1,InteriorLights:Electricity [J] !Hourly
542,1,InteriorEquipment:Electricity [J] !Hourly
End of Data Dictionary
1,BUFFALO.NIAGARA.INTL.AP_NY_USA ANN HTG 99.6% CONDNS DB,  42.93, -78.73,  -5.00, 215.00
2,1, 1,21, 0, 1, 0.00,60.00,WinterDesignDay
74,63962295.87853998
110,0.0
542,0.0
843,13848229.56933856
2054,63962295.87853997
2,1, 1,21, 0, 2, 0.00,60.00,WinterDesignDay
74,57860064.23088957
110,0.0
542,0.0
843,15485439.739213972
2054,57860064.23088957
2,1, 1,21, 0, 3, 0.00,60.00,WinterDesignDay
74,57178490.38166244
110,0.0
542,0.0
843,13772240.348959275
2054,57178490.38166243
2,1, 1,21, 0, 4, 0.00,60.00,WinterDesignDay
74,92431595.16508217
110,0.0
542,0.0
843,18801394.28383799
2054,92431595.16508217
2,1, 1,21, 0, 5, 0.00,60.00,WinterDesignDay
74,95074648.03818405
110,0.0
542,0.0
843,20149141.06778668
2054,95074648.03818405
2,1, 1,21, 0, 6, 0.00,60.00,WinterDesignDay
74,195253129.11388315
110,0.0
542,0.0
843,15128116.786544145
2054,195253129.11388315
2,1, 1,21, 0, 7, 0.00,60.00,WinterDesignDay
74,522943438.96066299
110,0.0
542,0.0
843,13897389.106762726
2054,522943438.96066287
2,1, 1,21, 0, 8, 0.00,60.00,WinterDesignDay
74,638213417.6682882
110,0.0
542,0.0
843,357128521.25768867
2054,638213417.6682882
2,1, 1,21, 0, 9, 0.00,60.00,WinterDesignDay
74,541426025.0540099
110,0.0
542,0.0
843,353153011.8813714
2054,541426025.0540099
2,1, 1,21, 0,10, 0.00,60.00,WinterDesignDay
74,512957478.0935716
110,0.0
542,0.0
843,351950085.3060687
2054,512957478.0935716
2,1, 1,21, 0,11, 0.00,60.00,WinterDesignDay
74,495821661.4367213
110,0.0
542,0.0
843,351309849.67351379
2054,495821661.43672129
2,1, 1,21, 0,12, 0.00,60.00,WinterDesignDay
74,482582357.5274775
110,0.0
542,0.0
843,350955744.07282987
2054,482582357.5274775
2,1, 1,21, 0,13, 0.00,60.00,WinterDesignDay
74,471721248.13824436
110,0.0
542,0.0
843,350712963.1817798
2054,471721248.13824436
2,1, 1,21, 0,14, 0.00,60.00,WinterDesignDay
74,462236146.36262
110,0.0
542,0.0
843,350513119.7620677
2054,462236146.36262
2,1, 1,21, 0,15, 0.00,60.00,WinterDesignDay
74,453993398.0880133
110,0.0
542,0.0
843,350327238.5925686
2054,453993398.0880133
2,1, 1,21, 0,16, 0.00,60.00,WinterDesignDay
74,446647738.1799065
110,0.0
542,0.0
843,354288253.43468669
2054,446647738.1799065
2,1, 1,21, 0,17, 0.00,60.00,WinterDesignDay
74,439864667.5451782
110,0.0
542,0.0
843,349987404.45681539
2054,439864667.5451782
2,1, 1,21, 0,18, 0.00,60.00,WinterDesignDay
74,453008605.6580758
110,0.0
542,0.0
843,349813007.83946749
2054,453008605.6580758
2,1, 1,21, 0,19, 0.00,60.00,WinterDesignDay
74,381831714.40893736
110,0.0
542,0.0
843,6791184.0
2054,381831714.4089373
2,1, 1,21, 0,20, 0.00,60.00,WinterDesignDay
74,401640809.09561708
110,0.0
542,0.0
843,6791184.0
2054,401640809.09561708
2,1, 1,21, 0,21, 0.00,60.00,WinterDesignDay
74,269542463.5955567
110,0.0
542,0.0
843,6791184.0
2054,269542463.5955567
2,1, 1,21, 0,22, 0.00,60.00,WinterDesignDay
74,401439877.3424408
110,0.0
542,0.0
843,6791184.0
2054,401439877.34244087
2,1, 1,21, 0,23, 0.00,60.00,WinterDesignDay
74,20882238.663321936
110,0.0
542,0.0
843,6791184.0
2054,20882238.663321936
2,1, 1,21, 0,24, 0.00,60.00,WinterDesignDay
74,46309754.42357312
110,0.0
542,0.0
843,9988999.613667258
2054,46309754.42357312
1,BUFFALO.NIAGARA.INTL.AP_NY_USA ANN CLG .4% CONDNS DB=>MWB,  42.93, -78.73,  -5.00, 215.00
2,1, 7,21, 0, 1, 0.00,60.00,SummerDesignDay
74,465464015.79043319
110,152517470.7542746
542,224813060.55296705
843,6791184.0
2054,465464015.79043319
2,1, 7,21, 0, 2, 0.00,60.00,SummerDesignDay
74,482011146.8421223
110,152517470.7542746
542,224813060.55296705
843,6791184.0
2054,482011146.8421223
2,1, 7,21, 0, 3, 0.00,60.00,SummerDesignDay
74,466137989.35486057
110,152517470.7542746
542,224813060.55296705
843,6791184.0
2054,466137989.3548606
2,1, 7,21, 0, 4, 0.00,60.00,SummerDesignDay
74,481834386.1431335
110,152517470.7542746
542,224813060.55296705
843,6791184.0
2054,481834386.1431335
2,1, 7,21, 0, 5, 0.00,60.00,SummerDesignDay
74,484228671.38737288
110,152517470.7542746
542,224813060.55296705
843,6791184.0
2054,484228671.38737288
2,1, 7,21, 0, 6, 0.00,60.00,SummerDesignDay
74,431613472.62328138
110,127102446.88489416
542,224813060.55296705
843,6791184.0
2054,431613472.62328138
2,1, 7,21, 0, 7, 0.00,60.00,SummerDesignDay
74,569740564.7906735
110,120037894.75201537
542,224813060.55296705
843,6791184.0
2054,569740564.7906734
2,1, 7,21, 0, 8, 0.00,60.00,SummerDesignDay
74,692872249.6663778
110,119991185.40467142
542,224813060.55296705
843,6791184.0
2054,692872249.6663777
2,1, 7,21, 0, 9, 0.00,60.00,SummerDesignDay
74,702614409.1822796
110,119991185.40467142
542,224813060.55296705
843,6791184.0
2054,702614409.1822796
2,1, 7,21, 0,10, 0.00,60.00,SummerDesignDay
74,672716197.7253611
110,119991185.40467142
542,224813060.55296705
843,6791184.0
2054,672716197.7253611
2,1, 7,21, 0,11, 0.00,60.00,SummerDesignDay
74,673291071.9604383
110,119991185.40467142
542,224813060.55296705
843,6791184.0
2054,673291071.9604383
2,1, 7,21, 0,12, 0.00,60.00,SummerDesignDay
74,672891375.1248083
110,119991185.40467142
542,224813060.55296705
843,20533710.922764824
2054,672891375.1248083
2,1, 7,21, 0,13, 0.00,60.00,SummerDesignDay
74,678044006.4929493
110,119991185.40467142
542,224813060.55296705
843,25827141.0926278
2054,678044006.4929493
2,1, 7,21, 0,14, 0.00,60.00,SummerDesignDay
74,691112998.9218066
110,119991185.40467142
542,224813060.55296705
843,25622702.16712422
2054,691112998.9218066
2,1, 7,21, 0,15, 0.00,60.00,SummerDesignDay
74,698557369.3816266
110,119991185.40467142
542,224813060.55296705
843,15534619.842916588
2054,698557369.3816266
2,1, 7,21, 0,16, 0.00,60.00,SummerDesignDay
74,692009946.1187599
110,119991185.40467142
542,224813060.55296705
843,15504251.408926964
2054,692009946.1187599
2,1, 7,21, 0,17, 0.00,60.00,SummerDesignDay
74,675686850.4247806
110,119991185.40467142
542,224813060.55296705
843,20386476.72921069
2054,675686850.4247806
2,1, 7,21, 0,18, 0.00,60.00,SummerDesignDay
74,652920132.5644266
110,119991185.40467142
542,224813060.55296705
843,11046145.858291299
2054,652920132.5644266
2,1, 7,21, 0,19, 0.00,60.00,SummerDesignDay
74,621905771.5218186
110,120994448.16172122
542,224813060.55296705
843,10983130.954927218
2054,621905771.5218185
2,1, 7,21, 0,20, 0.00,60.00,SummerDesignDay
74,613172202.0242703
110,146537977.73355908
542,224813060.55296705
843,6791184.0
2054,613172202.0242703
2,1, 7,21, 0,21, 0.00,60.00,SummerDesignDay
74,623632325.5417632
110,152517470.7542746
542,224813060.55296705
843,6791184.0
2054,623632325.5417632
2,1, 7,21, 0,22, 0.00,60.00,SummerDesignDay
74,644635411.3126918
110,152517470.7542746
542,224813060.55296705
843,6791184.0
2054,644635411.3126918
2,1, 7,21, 0,23, 0.00,60.00,SummerDesignDay
74,441375115.129443
110,152517470.7542746
542,224813060.55296705
843,6791184.0
2054,441375115.12944307
2,1, 7,21, 0,24, 0.00,60.00,SummerDesignDay
74,473473671.9740355
110,152517470.7542746
542,224813060.55296705
843,6791184.0
2054,473473671.9740355
1,RUNPERIOD 1,  42.93, -78.73,  -5.00, 215.00
2,1, 7, 1, 1, 1, 0.00,60.00,Sunday
74,46358994.54911919
110,3861201.791338584
542,33399901.5013581
843,6791184.0
2054,46358994.54911918
2,1, 7, 1, 1, 2, 0.00,60.00,Sunday
74,46359235.70955594
110,3861201.791338584
542,33399901.5013581
843,6791184.0
2054,46359235.70955593
2,1, 7, 1, 1, 3, 0.00,60.00,Sunday
74,46359235.70955594
110,3861201.791338584
542,33399901.5013581
843,6791184.0
2054,46359235.70955593
2,1, 7, 1, 1, 4, 0.00,60.00,Sunday
74,46359235.70955594
110,3861201.791338584
542,33399901.5013581
843,6791184.0
2054,46359235.70955593
2,1, 7, 1, 1, 5, 0.00,60.00,Sunday
74,42113665.70955594
110,3861201.791338584
542,33399901.5013581
843,6791184.0
2054,42113665.70955594
2,1, 7, 1, 1, 6, 0.00,60.00,Sunday
74,49680733.48289378
110,4976504.073732063
542,41385398.90873409
843,6791184.0
2054,49680733.48289377
2,1, 7, 1, 1, 7, 0.00,60.00,Sunday
74,86701096.2371531
110,5189159.43383782
542,41385398.90873409
843,6791184.0
2054,86701096.23715309
2,1, 7, 1, 1, 8, 0.00,60.00,Sunday
74,86961669.0041133
110,5173573.547439723
542,41385398.90873409
843,6791184.0
2054,86961669.0041133
2,1, 7, 1, 1, 9, 0.00,60.00,Sunday
74,94949950.08501348
110,5173573.547439723
542,41385398.90873409
843,6791184.0
2054,94949950.08501347
2,1, 7, 1, 1,10, 0.00,60.00,Sunday
74,104580980.98940225
110,5173573.547439723
542,41385398.90873409
843,6791184.0
2054,104580980.98940225
2,1, 7, 1, 1,11, 0.00,60.00,Sunday
74,95987873.83312077
110,5173573.547439723
542,41385398.90873409
843,6791184.0
2054,95987873.83312077
2,1, 7, 1, 1,12, 0.00,60.00,Sunday
74,86158323.02851197
110,5173573.547439723
542,41385398.90873409
843,6791184.0
2054,86158323.02851197
2,1, 7, 1, 1,13, 0.00,60.00,Sunday
74,91494943.93918433
110,5173573.547439723
542,41385398.90873409
843,6791184.0
2054,91494943.93918433
2,1, 7, 1, 1,14, 0.00,60.00,Sunday
74,93198304.1413845
110,5173573.547439723
542,41385398.90873409
843,6791184.0
2054,93198304.1413845
2,1, 7, 1, 1,15, 0.00,60.00,Sunday
74,86990143.99348104
110,5173573.547439723
542,41385398.90873409
843,6791184.0
2054,86990143.99348104
2,1, 7, 1, 1,16, 0.00,60.00,Sunday
74,99795769.73792789
110,5173573.547439723
542,41385398.90873409
843,6791184.0
2054,99795769.73792789
2,1, 7, 1, 1,17, 0.00,60.00,Sunday
74,103350554.54989979
110,5173573.547439723
542,41385398.90873409
843,6791184.0
2054,103350554.54989976
2,1, 7, 1, 1,18, 0.00,60.00,Sunday
74,88795123.37137045
110,4329725.696864651
542,33399901.5013581
843,6791184.0
2054,88795123.37137045
2,1, 7, 1, 1,19, 0.00,60.00,Sunday
74,59823856.31149988
110,3807451.838500842
542,33399901.5013581
843,6791184.0
2054,59823856.31149988
2,1, 7, 1, 1,20, 0.00,60.00,Sunday
74,40637588.94382495
110,3871565.2849116956
542,33399901.5013581
843,6791184.0
2054,40637588.94382495
2,1, 7, 1, 1,21, 0.00,60.00,Sunday
74,48904615.70955594
110,3861201.791338584
542,33399901.5013581
843,6791184.0
2054,48904615.70955593
2,1, 7, 1, 1,22, 0.00,60.00,Sunday
74,48904615.70955594
110,3861201.791338584
542,33399901.5013581
843,6791184.0
2054,48904615.70955593
2,1, 7, 1, 1,23, 0.00,60.00,Sunday
74,48904615.70955594
110,3861201.791338584
542,33399901.5013581
843,6791184.0
2054,48904615.70955593
2,1, 7, 1, 1,24, 0.00,60.00,Sunday
74,46359235.70955594
110,3861201.791338584
542,33399901.5013581
843,6791184.0
2054,46359235.70955593
2,2, 7, 2, 1, 1, 0.00,60.00,Monday
74,57609860.11373618
110,3861201.791338584
542,44533202.00181078
843,6791184.0
2054,57609860.11373618
2,2, 7, 2, 1, 2, 0.00,60.00,Monday
74,57609860.11373618
110,3861201.791338584
542,44533202.00181078
843,6791184.0
2054,57609860.11373618
2,2, 7, 2, 1, 3, 0.00,60.00,Monday
74,57609860.11373618
110,3861201.791338584
542,44533202.00181078
843,6791184.0
2054,57609860.11373618
2,2, 7, 2, 1, 4, 0.00,60.00,Monday
74,57609860.11373618
110,3861201.791338584
542,44533202.00181078
843,6791184.0
2054,57609860.11373618
2,2, 7, 2, 1, 5, 0.00,60.00,Monday
74,55487075.11373618
110,3861201.791338584
542,44533202.00181078
843,6791184.0
2054,55487075.11373618
2,2, 7, 2, 1, 6, 0.00,60.00,Monday
74,157325722.68926055
110,9937643.091107872
542,55180531.87831212
843,6791184.0
2054,157325722.68926058
2,2, 7, 2, 1, 7, 0.00,60.00,Monday
74,219431886.57703723
110,32116358.332728395
542,95796493.41677365
843,6791184.0
2054,219431886.57703723
2,2, 7, 2, 1, 8, 0.00,60.00,Monday
74,430178932.85929128
110,93622374.60534024
542,204227663.7591693
843,6791184.0
2054,430178932.8592912
2,2, 7, 2, 1, 9, 0.00,60.00,Monday
74,398509902.9906751
110,93124323.85391507
542,174055806.61631219
843,6791184.0
2054,398509902.9906751
2,2, 7, 2, 1,10, 0.00,60.00,Monday
74,391708418.4021883
110,93124323.85391507
542,167093070.35257594
843,6791184.0
2054,391708418.4021884
2,2, 7, 2, 1,11, 0.00,60.00,Monday
74,395750214.5891826
110,93124323.85391507
542,174055806.61631219
843,11392556.01905708
2054,395750214.5891826
2,2, 7, 2, 1,12, 0.00,60.00,Monday
74,393262263.538869
110,93124323.85391507
542,177667514.30607478
843,28906697.683581547
2054,393262263.538869
2,2, 7, 2, 1,13, 0.00,60.00,Monday
74,435001259.4199195
110,93124323.85391507
542,179858086.8360924
843,22780191.703024705
2054,435001259.41991946
2,2, 7, 2, 1,14, 0.00,60.00,Monday
74,453965967.35757926
110,93124323.85391507
542,167093070.35257594
843,19968486.489251526
2054,453965967.35757926
2,2, 7, 2, 1,15, 0.00,60.00,Monday
74,455212279.6398594
110,93124323.85391507
542,167093070.35257594
843,15534756.256186706
2054,455212279.63985946
2,2, 7, 2, 1,16, 0.00,60.00,Monday
74,460590874.1716284
110,93124323.85391507
542,177537174.74818034
843,20444369.73134022
2054,460590874.17162838
2,2, 7, 2, 1,17, 0.00,60.00,Monday
74,340874951.95985236
110,51735735.47439728
542,140923939.57316489
843,11046210.880704508
2054,340874951.95985236
2,2, 7, 2, 1,18, 0.00,60.00,Monday
74,215567184.17050643
110,31041441.284638365
542,69106004.40578464
843,10977677.763689844
2054,215567184.17050646
2,2, 7, 2, 1,19, 0.00,60.00,Monday
74,195705565.35554678
110,31515175.823303485
542,59822356.05413629
843,6791184.0
2054,195705565.3555468
2,2, 7, 2, 1,20, 0.00,60.00,Monday
74,175201553.81015796
110,25038636.921326918
542,59822356.05413629
843,10917760.058350346
2054,175201553.81015796
2,2, 7, 2, 1,21, 0.00,60.00,Monday
74,166517494.68450723
110,26303943.895732467
542,55180531.87831212
843,6791184.0
2054,166517494.68450723
2,2, 7, 2, 1,22, 0.00,60.00,Monday
74,80271371.63626296
110,13151971.947866233
542,55180531.87831212
843,6791184.0
2054,80271371.63626296
2,2, 7, 2, 1,23, 0.00,60.00,Monday
74,73691760.40172555
110,6575985.9739331169
542,55180531.87831212
843,6791184.0
2054,73691760.40172553
2,2, 7, 2, 1,24, 0.00,60.00,Monday
74,58551584.40070834
110,4802369.727932371
542,44533202.00181078
843,6791184.0
2054,58551584.40070834
2,3, 7, 3, 1, 1, 0.00,60.00,Tuesday
74,57609860.11373618
110,3861201.791338584
542,44533202.00181078
843,6791184.0
2054,57609860.11373618
2,3, 7, 3, 1, 2, 0.00,60.00,Tuesday
74,57609860.11373618
110,3861201.791338584
542,44533202.00181078
843,6791184.0
2054,57609860.11373618
2,3, 7, 3, 1, 3, 0.00,60.00,Tuesday
74,57609860.11373618
110,3861201.791338584
542,44533202.00181078
843,6791184.0
2054,57609860.11373618
2,3, 7, 3, 1, 4, 0.00,60.00,Tuesday
74,57609860.11373618
110,3861201.791338584
542,44533202.00181078
843,6791184.0
2054,57609860.11373618
2,3, 7, 3, 1, 5, 0.00,60.00,Tuesday
74,55487075.11373618
110,3861201.791338584
542,44533202.00181078
843,6791184.0
2054,55487075.11373618
2,3, 7, 3, 1, 6, 0.00,60.00,Tuesday
74,77515444.45073052
110,8940070.17026987
542,55180531.87831212
843,6791184.0
2054,77515444.4507305
2,3, 7, 3, 1, 7, 0.00,60.00,Tuesday
74,162287876.0974923
110,31053524.884430559
542,95796493.41677365
843,6791184.0
2054,162287876.09749235
2,3, 7, 3, 1, 8, 0.00,60.00,Tuesday
74,390559297.08763626
110,93124323.85391507
542,204227663.7591693
843,6791184.0
2054,390559297.08763626
2,3, 7, 3, 1, 9, 0.00,60.00,Tuesday
74,377418064.7568381
110,93124323.85391507
542,174055806.61631219
843,6791184.0
2054,377418064.7568381
2,3, 7, 3, 1,10, 0.00,60.00,Tuesday
74,386790238.5277759
110,93124323.85391507
542,167093070.35257594
843,6791184.0
2054,386790238.5277759
2,3, 7, 3, 1,11, 0.00,60.00,Tuesday
74,407720317.23792907
110,93124323.85391507
542,174055806.61631219
843,15995558.967902424
2054,407720317.23792907
2,3, 7, 3, 1,12, 0.00,60.00,Tuesday
74,415925159.65638998
110,93124323.85391507
542,177667514.30607478
843,25933505.94850872
2054,415925159.65638998
2,3, 7, 3, 1,13, 0.00,60.00,Tuesday
74,435025098.0207902
110,93124323.85391507
542,179858086.8360924
843,25721391.542736815
2054,435025098.0207902
2,3, 7, 3, 1,14, 0.00,60.00,Tuesday
74,426550960.9866911
110,93124323.85391507
542,167093070.35257594
843,15560317.512117736
2054,426550960.9866911
2,3, 7, 3, 1,15, 0.00,60.00,Tuesday
74,441701843.11773589
110,93124323.85391507
542,167093070.35257594
843,15536737.951702245
2054,441701843.11773589
2,3, 7, 3, 1,16, 0.00,60.00,Tuesday
74,460369765.0629161
110,93124323.85391507
542,177537174.74818034
843,20429198.73628965
2054,460369765.0629161
2,3, 7, 3, 1,17, 0.00,60.00,Tuesday
74,340658926.5054627
110,51735735.47439728
542,140923939.57316489
843,15345036.75645531
2054,340658926.5054627
2,3, 7, 3, 1,18, 0.00,60.00,Tuesday
74,211772626.46964259
110,31041441.284638365
542,69106004.40578464
843,6791184.0
2054,211772626.46964259
2,3, 7, 3, 1,19, 0.00,60.00,Tuesday
74,198480402.06505765
110,31515175.823303485
542,59822356.05413629
843,7397021.611970484
2054,198480402.06505765
2,3, 7, 3, 1,20, 0.00,60.00,Tuesday
74,176967016.6679809
110,25131182.776453578
542,59822356.05413629
843,10293536.118193672
2054,176967016.6679809
2,3, 7, 3, 1,21, 0.00,60.00,Tuesday
74,170202616.53867594
110,26303943.895732467
542,55180531.87831212
843,6791184.0
2054,170202616.53867594
2,3, 7, 3, 1,22, 0.00,60.00,Tuesday
74,80271371.63626296
110,13151971.947866233
542,55180531.87831212
843,6791184.0
2054,80271371.63626296
2,3, 7, 3, 1,23, 0.00,60.00,Tuesday
74,73691760.40172555
110,6575985.9739331169
542,55180531.87831212
843,6791184.0
2054,73691760.40172553
2,3, 7, 3, 1,24, 0.00,60.00,Tuesday
74,58551584.40070834
110,4802369.727932371
542,44533202.00181078
843,6791184.0
2054,58551584.40070834
2,4, 7, 4, 1, 1, 0.00,60.00,Holiday
74,46359235.70955594
110,3861201.791338584
542,33399901.5013581
843,6791184.0
2054,46359235.70955593
2,4, 7, 4, 1, 2, 0.00,60.00,Holiday
74,46359235.70955594
110,3861201.791338584
542,33399901.5013581
843,6791184.0
2054,46359235.70955593
2,4, 7, 4, 1, 3, 0.00,60.00,Holiday
74,46359235.70955594
110,3861201.791338584
542,33399901.5013581
843,6791184.0
2054,46359235.70955593
2,4, 7, 4, 1, 4, 0.00,60.00,Holiday
74,46359235.70955594
110,3861201.791338584
542,33399901.5013581
843,6791184.0
2054,46359235.70955593
2,4, 7, 4, 1, 5, 0.00,60.00,Holiday
74,44236450.70955594
110,3861201.791338584
542,33399901.5013581
843,6791184.0
2054,44236450.70955594
2,4, 7, 4, 1, 6, 0.00,60.00,Holiday
74,47050380.57139371
110,4952685.309052257
542,41385398.90873409
843,6791184.0
2054,47050380.5713937
2,4, 7, 4, 1, 7, 0.00,60.00,Holiday
74,74327429.80115627
110,5179615.347335821
542,41385398.90873409
843,6791184.0
2054,74327429.80115626
2,4, 7, 4, 1, 8, 0.00,60.00,Holiday
74,111992837.94700398
110,5173573.547439723
542,41385398.90873409
843,6791184.0
2054,111992837.94700398
2,4, 7, 4, 1, 9, 0.00,60.00,Holiday
74,110378616.63794498
110,5173573.547439723
542,41385398.90873409
843,6791184.0
2054,110378616.63794498
2,4, 7, 4, 1,10, 0.00,60.00,Holiday
74,103039840.20878132
110,5173573.547439723
542,41385398.90873409
843,6791184.0
2054,103039840.2087813
2,4, 7, 4, 1,11, 0.00,60.00,Holiday
74,120569305.39172441
110,5173573.547439723
542,41385398.90873409
843,6791184.0
2054,120569305.39172441
2,4, 7, 4, 1,12, 0.00,60.00,Holiday
74,102835011.18657878
110,5173573.547439723
542,41385398.90873409
843,6791184.0
2054,102835011.18657878
2,4, 7, 4, 1,13, 0.00,60.00,Holiday
74,98353818.88170587
110,5173573.547439723
542,41385398.90873409
843,6791184.0
2054,98353818.88170585
2,4, 7, 4, 1,14, 0.00,60.00,Holiday
74,107799642.49089225
110,5173573.547439723
542,41385398.90873409
843,6791184.0
2054,107799642.49089225
2,4, 7, 4, 1,15, 0.00,60.00,Holiday
74,103212829.45970853
110,5173573.547439723
542,41385398.90873409
843,6791184.0
2054,103212829.45970853
2,4, 7, 4, 1,16, 0.00,60.00,Holiday
74,112174698.32470443
110,5173573.547439723
542,41385398.90873409
843,6791184.0
2054,112174698.32470441
2,4, 7, 4, 1,17, 0.00,60.00,Holiday
74,111570993.35261704
110,5173573.547439723
542,41385398.90873409
843,6791184.0
2054,111570993.35261703
2,4, 7, 4, 1,18, 0.00,60.00,Holiday
74,55182140.44284149
110,4343235.864706293
542,33399901.5013581
843,6791184.0
2054,55182140.4428415
2,4, 7, 4, 1,19, 0.00,60.00,Holiday
74,53693689.75343708
110,3844743.741029627
542,33399901.5013581
843,6791184.0
2054,53693689.75343708
2,4, 7, 4, 1,20, 0.00,60.00,Holiday
74,40627226.35705496
110,3861201.791338584
542,33399901.5013581
843,6791184.0
2054,40627226.35705496
2,4, 7, 4, 1,21, 0.00,60.00,Holiday
74,48904615.70955594
110,3861201.791338584
542,33399901.5013581
843,6791184.0
2054,48904615.70955593
2,4, 7, 4, 1,22, 0.00,60.00,Holiday
74,48904615.70955594
110,3861201.791338584
542,33399901.5013581
843,6791184.0
2054,48904615.70955593
2,4, 7, 4, 1,23, 0.00,60.00,Holiday
74,48904615.70955594
110,3861201.791338584
542,33399901.5013581
843,6791184.0
2054,48904615.70955593
2,4, 7, 4, 1,24, 0.00,60.00,Holiday
74,46359235.70955594
110,3861201.791338584
542,33399901.5013581
843,6791184.0
2054,46359235.70955593
2,5, 7, 5, 1, 1, 0.00,60.00,Thursday
74,57609860.11373618
110,3861201.791338584
542,44533202.00181078
843,6791184.0
2054,57609860.11373618
2,5, 7, 5, 1, 2, 0.00,60.00,Thursday
74,57609860.11373618
110,3861201.791338584
542,44533202.00181078
843,6791184.0
2054,57609860.11373618
2,5, 7, 5, 1, 3, 0.00,60.00,Thursday
74,57609860.11373618
110,3861201.791338584
542,44533202.00181078
843,6791184.0
2054,57609860.11373618
2,5, 7, 5, 1, 4, 0.00,60.00,Thursday
74,57609860.11373618
110,3861201.791338584
542,44533202.00181078
843,6791184.0
2054,57609860.11373618
2,5, 7, 5, 1, 5, 0.00,60.00,Thursday
74,55487075.11373618
110,3861201.791338584
542,44533202.00181078
843,6791184.0
2054,55487075.11373618
2,5, 7, 5, 1, 6, 0.00,60.00,Thursday
74,145121786.44351334
110,9461594.132078944
542,55180531.87831212
843,6791184.0
2054,145121786.44351334
2,5, 7, 5, 1, 7, 0.00,60.00,Thursday
74,207053197.8950875
110,31358238.039180656
542,95796493.41677365
843,6791184.0
2054,207053197.8950875
2,5, 7, 5, 1, 8, 0.00,60.00,Thursday
74,411199940.8612987
110,93124323.85391507
542,204227663.7591693
843,6791184.0
2054,411199940.8612987
2,5, 7, 5, 1, 9, 0.00,60.00,Thursday
74,408682387.588678
110,93124323.85391507
542,174055806.61631219
843,6791184.0
2054,408682387.588678
2,5, 7, 5, 1,10, 0.00,60.00,Thursday
74,447489231.1063679
110,93124323.85391507
542,167093070.35257594
843,6791184.0
2054,447489231.1063679
2,5, 7, 5, 1,11, 0.00,60.00,Thursday
74,479858792.4347212
110,93124323.85391507
542,174055806.61631219
843,11388261.05643022
2054,479858792.4347211
2,5, 7, 5, 1,12, 0.00,60.00,Thursday
74,477460454.0511334
110,93124323.85391507
542,177667514.30607478
843,25927411.727481884
2054,477460454.05113336
2,5, 7, 5, 1,13, 0.00,60.00,Thursday
74,487288249.905484
110,93124323.85391507
542,179858086.8360924
843,25712505.252623857
2054,487288249.9054839
2,5, 7, 5, 1,14, 0.00,60.00,Thursday
74,469582142.9816272
110,93124323.85391507
542,167093070.35257594
843,15566887.930035113
2054,469582142.98162719
2,5, 7, 5, 1,15, 0.00,60.00,Thursday
74,488949058.5463239
110,93124323.85391507
542,167093070.35257594
843,17981284.191645288
2054,488949058.54632386
2,5, 7, 5, 1,16, 0.00,60.00,Thursday
74,525582082.1785816
110,93124323.85391507
542,177537174.74818034
843,21174702.741061376
2054,525582082.1785816
2,5, 7, 5, 1,17, 0.00,60.00,Thursday
74,389461572.0273856
110,51735735.47439728
542,140923939.57316489
843,12213245.363127236
2054,389461572.02738568
2,5, 7, 5, 1,18, 0.00,60.00,Thursday
74,233495170.16795809
110,31422515.85087426
542,69106004.40578464
843,10990844.454442356
2054,233495170.16795806
2,5, 7, 5, 1,19, 0.00,60.00,Thursday
74,218973669.46470905
110,32567145.920741667
542,59822356.05413629
843,6791184.0
2054,218973669.46470905
2,5, 7, 5, 1,20, 0.00,60.00,Thursday
74,199159353.85321159
110,25961161.763444246
542,59822356.05413629
843,6791184.0
2054,199159353.85321159
2,5, 7, 5, 1,21, 0.00,60.00,Thursday
74,187134716.89705438
110,26303943.895732467
542,55180531.87831212
843,6791184.0
2054,187134716.89705438
2,5, 7, 5, 1,22, 0.00,60.00,Thursday
74,80271371.63626296
110,13151971.947866233
542,55180531.87831212
843,6791184.0
2054,80271371.63626296
2,5, 7, 5, 1,23, 0.00,60.00,Thursday
74,73691760.40172555
110,6575985.9739331169
542,55180531.87831212
843,6791184.0
2054,73691760.40172553
2,5, 7, 5, 1,24, 0.00,60.00,Thursday
74,58551584.40070834
110,4802369.727932371
542,44533202.00181078
843,6791184.0
2054,58551584.40070834
2,6, 7, 6, 1, 1, 0.00,60.00,Friday
74,57609860.11373618
110,3861201.791338584
542,44533202.00181078
843,6791184.0
2054,57609860.11373618
2,6, 7, 6, 1, 2, 0.00,60.00,Friday
74,57609860.11373618
110,3861201.791338584
542,44533202.00181078
843,6791184.0
2054,57609860.11373618
2,6, 7, 6, 1, 3, 0.00,60.00,Friday
74,57609860.11373618
110,3861201.791338584
542,44533202.00181078
843,6791184.0
2054,57609860.11373618
2,6, 7, 6, 1, 4, 0.00,60.00,Friday
74,57609860.11373618
110,3861201.791338584
542,44533202.00181078
843,6791184.0
2054,57609860.11373618
2,6, 7, 6, 1, 5, 0.00,60.00,Friday
74,55487075.11373618
110,3861201.791338584
542,44533202.00181078
843,6791184.0
2054,55487075.11373618
2,6, 7, 6, 1, 6, 0.00,60.00,Friday
74,77423180.58593866
110,8948125.903464664
542,55180531.87831212
843,6791184.0
2054,77423180.58593863
2,6, 7, 6, 1, 7, 0.00,60.00,Friday
74,155800237.37209333
110,31053524.884430559
542,95796493.41677365
843,6791184.0
2054,155800237.37209333
2,6, 7, 6, 1, 8, 0.00,60.00,Friday
74,350145719.31217107
110,93124323.85391507
542,204227663.7591693
843,6791184.0
2054,350145719.3121711
2,6, 7, 6, 1, 9, 0.00,60.00,Friday
74,342955548.521747
110,93124323.85391507
542,174055806.61631219
843,6791184.0
2054,342955548.521747
2,6, 7, 6, 1,10, 0.00,60.00,Friday
74,345814734.90851059
110,93124323.85391507
542,167093070.35257594
843,6791184.0
2054,345814734.90851059
2,6, 7, 6, 1,11, 0.00,60.00,Friday
74,361567840.5206096
110,93124323.85391507
542,174055806.61631219
843,15989480.758316841
2054,361567840.5206096
2,6, 7, 6, 1,12, 0.00,60.00,Friday
74,362342845.8655737
110,93124323.85391507
542,177667514.30607478
843,26858124.226961934
2054,362342845.8655737
2,6, 7, 6, 1,13, 0.00,60.00,Friday
74,375959835.01532027
110,93124323.85391507
542,179858086.8360924
843,24763044.52638741
2054,375959835.0153202
2,6, 7, 6, 1,14, 0.00,60.00,Friday
74,368086418.2704512
110,93124323.85391507
542,167093070.35257594
843,17349731.095067439
2054,368086418.2704511
2,6, 7, 6, 1,15, 0.00,60.00,Friday
74,375433671.1585047
110,93124323.85391507
542,167093070.35257594
843,17444217.484534105
2054,375433671.1585048
2,6, 7, 6, 1,16, 0.00,60.00,Friday
74,392720140.911904
110,93124323.85391507
542,177537174.74818034
843,20874831.087458586
2054,392720140.91190388
2,6, 7, 6, 1,17, 0.00,60.00,Friday
74,291883919.8452272
110,51735735.47439728
542,140923939.57316489
843,11291475.171314832
2054,291883919.8452272
2,6, 7, 6, 1,18, 0.00,60.00,Friday
74,186533905.350628
110,31041441.284638365
542,69106004.40578464
843,10989866.940594012
2054,186533905.35062803
2,6, 7, 6, 1,19, 0.00,60.00,Friday
74,169923603.4960019
110,31515175.823303485
542,59822356.05413629
843,6791184.0
2054,169923603.49600197
2,6, 7, 6, 1,20, 0.00,60.00,Friday
74,149368797.20263575
110,25131182.776453578
542,59822356.05413629
843,6791184.0
2054,149368797.20263575
2,6, 7, 6, 1,21, 0.00,60.00,Friday
74,151094822.41264547
110,26303943.895732467
542,55180531.87831212
843,6791184.0
2054,151094822.41264547
2,6, 7, 6, 1,22, 0.00,60.00,Friday
74,80271371.63626296
110,13151971.947866233
542,55180531.87831212
843,6791184.0
2054,80271371.63626296
2,6, 7, 6, 1,23, 0.00,60.00,Friday
74,73691760.40172555
110,6575985.9739331169
542,55180531.87831212
843,6791184.0
2054,73691760.40172553
2,6, 7, 6, 1,24, 0.00,60.00,Friday
74,58551584.40070834
110,4802369.727932371
542,44533202.00181078
843,6791184.0
2054,58551584.40070834
2,7, 7, 7, 1, 1, 0.00,60.00,Saturday
74,46359235.70955594
110,3861201.791338584
542,33399901.5013581
843,6791184.0
2054,46359235.70955593
2,7, 7, 7, 1, 2, 0.00,60.00,Saturday
74,46359235.70955594
110,3861201.791338584
542,33399901.5013581
843,6791184.0
2054,46359235.70955593
2,7, 7, 7, 1, 3, 0.00,60.00,Saturday
74,46359235.70955594
110,3861201.791338584
542,33399901.5013581
843,6791184.0
2054,46359235.70955593
2,7, 7, 7, 1, 4, 0.00,60.00,Saturday
74,46359235.70955594
110,3861201.791338584
542,33399901.5013581
843,6791184.0
2054,46359235.70955593
2,7, 7, 7, 1, 5, 0.00,60.00,Saturday
74,44236450.70955594
110,3861201.791338584
542,33399901.5013581
843,6791184.0
2054,44236450.70955594
2,7, 7, 7, 1, 6, 0.00,60.00,Saturday
74,77349269.10094133
110,8967214.076468662
542,55180531.87831212
843,6791184.0
2054,77349269.10094133
2,7, 7, 7, 1, 7, 0.00,60.00,Saturday
74,102861332.43213198
110,10359230.694671642
542,73747828.58160882
843,6791184.0
2054,102861332.43213198
2,7, 7, 7, 1, 8, 0.00,60.00,Saturday
74,162825079.13117434
110,31041441.284638365
542,85222049.46327476
843,6791184.0
2054,162825079.13117434
2,7, 7, 7, 1, 9, 0.00,60.00,Saturday
74,193163184.76939199
110,31041441.284638365
542,93345241.77096707
843,6791184.0
2054,193163184.76939199
2,7, 7, 7, 1,10, 0.00,60.00,Saturday
74,196744840.13927467
110,31041441.284638365
542,89863873.63909894
843,6791184.0
2054,196744840.13927473
2,7, 7, 7, 1,11, 0.00,60.00,Saturday
74,208242527.6106615
110,31041441.284638365
542,97987065.94679125
843,6791184.0
2054,208242527.61066155
2,7, 7, 7, 1,12, 0.00,60.00,Saturday
74,172192115.20858843
110,15520720.642319182
542,72652542.31660003
843,6791184.0
2054,172192115.20858843
2,7, 7, 7, 1,13, 0.00,60.00,Saturday
74,167664717.08651475
110,15520720.642319182
542,63368893.96495168
843,6791184.0
2054,167664717.08651475
2,7, 7, 7, 1,14, 0.00,60.00,Saturday
74,161511031.39945505
110,15520720.642319182
542,57566613.74517146
843,6791184.0
2054,161511031.39945505
2,7, 7, 7, 1,15, 0.00,60.00,Saturday
74,159037390.5398452
110,15520720.642319182
542,52924789.569347288
843,6791184.0