Program Version,EnergyPlus, Version 9.1.0-08d2e308bb, YMD=2019.06.17 15:42
1,5,Environment Title[],Latitude[deg],Longitude[deg],Time Zone[],Elevation[m]
2,8,Day of Simulation[],Month[],Day of Month[],DST Indicator[1=yes 0=no],Hour[],StartMinute[],EndMinute[],DayType
3,5,Cumulative Day of Simulation[],Month[],Day of Month[],DST Indicator[1=yes 0=no],DayType  ! When Daily Report Variables Requested
4,2,Cumulative Days of Simulation[],Month[]  ! When Monthly Report Variables Requested
5,1,Cumulative Days of Simulation[] ! When Run Period Report Variables Requested
6,1,Calendar Year of Simulation[] ! When Annual Report Variables Requested
990,1,CORE_BOTTOM,Zone Mean Air Temperature [C] !Hourly
991,1,TOPFLOOR_PLENUM,Zone Mean Air Temperature [C] !Hourly
992,1,MIDFLOOR_PLENUM,Zone Mean Air Temperature [C] !Hourly
993,1,FIRSTFLOOR_PLENUM,Zone Mean Air Temperature [C] !Hourly
994,1,CORE_MID,Zone Mean Air Temperature [C] !Hourly
995,1,CORE_TOP,Zone Mean Air Temperature [C] !Hourly
996,1,PERIMETER_TOP_ZN_3,Zone Mean Air Temperature [C] !Hourly
997,1,PERIMETER_TOP_ZN_2,Zone Mean Air Temperature [C] !Hourly
998,1,PERIMETER_TOP_ZN_1,Zone Mean Air Temperature [C] !Hourly
999,1,PERIMETER_TOP_ZN_4,Zone Mean Air Temperature [C] !Hourly
1000,1,PERIMETER_BOT_ZN_3,Zone Mean Air Temperature [C] !Hourly
1001,1,PERIMETER_BOT_ZN_2,Zone Mean Air Temperature [C] !Hourly
1002,1,PERIMETER_BOT_ZN_1,Zone Mean Air Temperature [C] !Hourly
1003,1,PERIMETER_BOT_ZN_4,Zone Mean Air Temperature [C] !Hourly
1004,1,PERIMETER_MID_ZN_3,Zone Mean Air Temperature [C] !Hourly
1005,1,PERIMETER_MID_ZN_2,Zone Mean Air Temperature [C] !Hourly
1006,1,PERIMETER_MID_ZN_1,Zone Mean Air Temperature [C] !Hourly
1007,1,PERIMETER_MID_ZN_4,Zone Mean Air Temperature [C] !Hourly
End of Data Dictionary
1,BUFFALO.NIAGARA.INTL.AP_NY_USA ANN HTG 99.6% CONDNS DB,  42.93, -78.73,  -5.00, 215.00
2,1, 1,21, 0, 1, 0.00,60.00,WinterDesignDay
990,19.701088218464997
991,13.819010647783945
992,17.17647042254825
993,17.964545202665243
994,18.45990272381018
995,17.37437508891918
996,15.276883323993215
997,15.243035860083701
998,15.263499914537388
999,15.230676920849021
1000,15.716510841974135
1001,15.572208841028625
1002,15.64242952783863
1003,15.510450926935395
1004,15.472768570141565
1005,15.447381899985892
1006,15.463760896779185
1007,15.438482365277574
2,1, 1,21, 0, 2, 0.00,60.00,WinterDesignDay
990,19.568578582956059
991,13.600270269453905
992,17.00824898301272
993,17.83398728282597
994,18.236525116039464
995,17.025919550192254
996,15.264385504070088
997,15.235164328799009
998,15.254121309129907
999,15.230228269634236
1000,15.457247516914098
1001,15.299819815085403
1002,15.379412784859973
1003,15.236253129091392
1004,15.434499756879103
1005,15.407388773379765
1006,15.425006230721193
1007,15.397540481841088
2,1, 1,21, 0, 3, 0.00,60.00,WinterDesignDay
990,19.235493310785317
991,13.256981460317139
992,16.884566151141905
993,17.69479482836817
994,18.125736040973345
995,16.823327358921558
996,14.844419154077413
997,14.82513070374345
998,14.861618723106123
999,14.809247634230609
1000,15.464756200366976
1001,15.400784646133442
1002,15.435255887579162
1003,15.376738114010596
1004,15.196360831119876
1005,15.138071111209456
1006,15.174901565435244
1007,15.117651973475827
2,1, 1,21, 0, 4, 0.00,60.00,WinterDesignDay
990,18.971800079129229
991,13.176826887455942
992,16.74794297796772
993,17.555262241393267
994,17.970964232593106
995,16.61300625160807
996,15.21016541328703
997,15.187102171353617
998,15.210531793426215
999,15.1778587360638
1000,15.509558784133155
1001,15.478838344974488
1002,15.496217782815979
1003,15.468220127988566
1004,15.372479580813167
1005,15.336205783616832
1006,15.35882285092944
1007,15.3246391451995
2,1, 1,21, 0, 5, 0.00,60.00,WinterDesignDay
990,18.872958899621034
991,12.984666768911856
992,16.645767955690688
993,17.45324682352176
994,17.88079582048895
995,16.45205432883968
996,15.191093831286223
997,15.170764082985464
998,15.193591568882987
999,15.161031890381583
1000,15.42823717599525
1001,15.381551771572444
1002,15.407130615275662
1003,15.36462511889782
1004,15.350142956526785
1005,15.309996069191787
1006,15.333130087627764
1007,15.29468969002758
2,1, 1,21, 0, 6, 0.00,60.00,WinterDesignDay
990,18.721277367146184
991,12.929274358528025
992,16.65902367501879
993,17.525375792488729
994,17.824486516217044
995,17.14434813734558
996,15.89892111082849
997,15.858780438271378
998,15.912550726027522
999,15.845956496552854
1000,17.161761756123505
1001,17.132518043583155
1002,17.153146691145783
1003,17.121828477289435
1004,16.245849261368546
1005,16.180739022381404
1006,16.215197941003696
1007,16.16619615177114
2,1, 1,21, 0, 7, 0.00,60.00,WinterDesignDay
990,19.587955153639329
991,14.519953194216486
992,17.57174296651724
993,18.231642862391767
994,19.530072757695359
995,19.465090638796789
996,19.368209024437556
997,19.347445611640507
998,19.360037672747905
999,19.345239245565069
1000,19.519307623257086
1001,19.506546158136986
1002,19.516812520176769
1003,19.50730639921812
1004,19.37935564044521
1005,19.348113040066658
1006,19.36564743382382
1007,19.347863257082044
2,1, 1,21, 0, 8, 0.00,60.00,WinterDesignDay
990,20.958968424780254
991,16.16916700901567
992,18.389292389083708
993,18.899748984948514
994,20.912215891671715
995,20.915029463731725
996,20.95820239182317
997,20.940777034226437
998,20.949924863531846
999,20.939752902740339
1000,20.93002451268557
1001,20.873000210828395
1002,20.91530312506762
1003,20.876478249524135
1004,20.940188638418705
1005,20.887757921406533
1006,20.926339530280307
1007,20.89177423319289
2,1, 1,21, 0, 9, 0.00,60.00,WinterDesignDay
990,21.000029251673927
991,17.047734171166974
992,18.635780350763836
993,19.125846937573578
994,21.00004317243217
995,21.00006130284234
996,21.000355693696308
997,21.000376555569035
998,21.00028752505048
999,21.000367509498504
1000,21.000310702116687
1001,21.000329580094055
1002,21.000269255423278
1003,21.000333718600939
1004,21.000336204535917
1005,21.000335922473775
1006,21.000268588795298
1007,21.000342174364634
2,1, 1,21, 0,10, 0.00,60.00,WinterDesignDay
990,21.00002550852398
991,17.36130825096036
992,18.714660932935077
993,19.187372188550499
994,21.000040230791656
995,21.000055018904697
996,21.000476994215643
997,21.000488937855903
998,21.000371887364133
999,21.000476946818723
1000,21.00042077278201
1001,21.000432186811329
1002,21.000353131957895
1003,21.000437662139704
1004,21.000462298685379
1005,21.000443262793114
1006,21.000353405754824
1007,21.000451476073445
2,1, 1,21, 0,11, 0.00,60.00,WinterDesignDay
990,21.000025086362478
991,17.506431188014724
992,18.78443111958589
993,19.240092230994259
994,21.00004184665854
995,21.000055239317875
996,21.000595879173948
997,21.000595878979298
998,21.000454568452576
999,21.000580181625808
1000,21.000530877371586
1001,21.00053106946001
1002,21.0004371484481
1003,21.00053794423018
1004,21.000587374080696
1005,21.000544408250698
1006,21.000437604521495
1007,21.000554861949838
2,1, 1,21, 0,12, 0.00,60.00,WinterDesignDay
990,21.000026843067379
991,17.582706059779328
992,18.850302398110835
993,19.289378256268578
994,21.000045622644345
995,21.000059744922884
996,21.000621351816613
997,21.000594046163387
998,21.000463119625946
999,21.00057775149324
1000,21.000561542290155
1001,21.000532998649626
1002,21.00045190800144
1003,21.000540028478448
1004,21.000621072966994
1005,21.000544104084509
1006,21.000448982861877
1007,21.000554846142707
2,1, 1,21, 0,13, 0.00,60.00,WinterDesignDay
990,21.00003048018902
991,17.62889361948626
992,18.91275302151865
993,19.335867103083325
994,21.000051806327308
995,21.000067063391108
996,21.00067688318665
997,21.000647520201956
998,21.000504893292609
999,21.00063011851713
1000,21.000614682600827
1001,21.000582621441205
1002,21.000493894829455
1003,21.000590378153455
1004,21.000679332889058
1005,21.000594688742735
1006,21.00049075178254
1007,21.00060646482069
2,1, 1,21, 0,14, 0.00,60.00,WinterDesignDay
990,21.000031735313749
991,17.662120156611669
992,18.97221546075327
993,19.38002254386301
994,21.000053793154174
995,21.000069753654196
996,21.000646971850608
997,21.000593900714745
998,21.000473322316386
999,21.00057707638601
1000,21.000595479189618
1001,21.00053884637574
1002,21.000470071079449
1003,21.000546120514707
1004,21.00065514613115
1005,21.00054578331143
1006,21.000462067927076
1007,21.00055688767623
2,1, 1,21, 0,15, 0.00,60.00,WinterDesignDay
990,21.00003343773481
991,17.688374869342238
992,19.02861222172111
993,19.421852012126345
994,21.000055785456863
995,21.000072445729335
996,21.00060612137448
997,21.00054666960045
998,21.0004409047492
999,21.000531245089286
1000,21.000563255215103
1001,21.00049849311496
1002,21.000441331615208
1003,21.000505276768508
1004,21.00061658603713
1005,21.00050281226933
1006,21.000431075399665
1007,21.00051311453542
2,1, 1,21, 0,16, 0.00,60.00,WinterDesignDay
990,21.000033105398836
991,17.710324781579457
992,19.081979484547646
993,19.461414253570458
994,21.000054354944589
995,21.000070997153285
996,21.000524345288516
997,21.00045683659358
998,21.00037654068106
999,21.000443686866057
1000,21.000493840456863
1001,21.000419644426139
1002,21.000381786541465
1003,21.000425408393175
1004,21.000536767314473
1005,21.000420091990944
1006,21.000368811718837
1007,21.000428830436097
2,1, 1,21, 0,17, 0.00,60.00,WinterDesignDay
990,21.00003266608113
991,17.729285482292306
992,19.13239754166233
993,19.498787654116705
994,21.000052633182418
995,21.000069040729476
996,21.00046674532648
997,21.000410243334718
998,21.00033814188562
999,21.00039924331285
1000,21.00044146031049
1001,21.000376706400809
1002,21.000342502457014
1003,21.000381900999249
1004,21.000477082729348
1005,21.00037698292741
1006,21.000330173790645
1007,21.000384725181129
2,1, 1,21, 0,18, 0.00,60.00,WinterDesignDay
990,21.000029822926615
991,17.745983800581099
992,19.179970318965418
993,19.53406244280791
994,21.000047790153255
995,21.00006264044906
996,21.000428171883344
997,21.000376607434427
998,21.000309972089278
999,21.000366140282539
1000,21.00040661171889
1001,21.000348196152176
1002,21.00031594148242
1003,21.000353024258727
1004,21.00043736728576
1005,21.00034636078116
1006,21.000303032421944
1007,21.00035357617829
2,1, 1,21, 0,19, 0.00,60.00,WinterDesignDay
990,20.898716752546567
991,17.027030644536937
992,18.651463135655555
993,19.06324492889788
994,20.81032642062296
995,20.716460258010696
996,20.10786869949486
997,20.07753279656534
998,20.096689598911035
999,20.065188256865839
1000,20.245784663739295
1001,20.199994771369803
1002,20.22777607354503
1003,20.19074983677984
1004,20.18452410403471
1005,20.138717995285469
1006,20.166720355294549
1007,20.129480707737014
2,1, 1,21, 0,20, 0.00,60.00,WinterDesignDay
990,20.907474883439819
991,16.597996187353858
992,18.475869271305937
993,18.960143388319908
994,20.82322801094753
995,20.727324845332818
996,20.176291324451538
997,20.126054289336467
998,20.15965228206909
999,20.112623268267048
1000,20.352475632325729
1001,20.296612713089418
1002,20.331657094740156
1003,20.289575055431713
1004,20.24190059207465
1005,20.17462547963447
1006,20.21611500564897
1007,20.16753996817823
2,1, 1,21, 0,21, 0.00,60.00,WinterDesignDay
990,20.81302208027217
991,16.286078749649744
992,18.40300242130356
993,18.899646170609488
994,20.65555132847437
995,20.456593749429069
996,19.422168805082849
997,19.370294790601503
998,19.40578559000739
999,19.35079524861777
1000,19.825857402676485
1001,19.77024136776209
1002,19.803380804753734
1003,19.75604942108989
1004,19.61949379989938
1005,19.55528236684889
1006,19.597843371411014
1007,19.54033384460976
2,1, 1,21, 0,22, 0.00,60.00,WinterDesignDay
990,20.90844540479261
991,16.396355004877674
992,18.468767031929134
993,18.958999492447157
994,20.81271240914022
995,20.69947924858687
996,20.0627553108019
997,20.012813946789053
998,20.045045803491577
999,19.99891855304294
1000,20.27932056905838
1001,20.223206018771479
1002,20.26044285986203
1003,20.215417297131265
1004,20.159566915269907
1005,20.094653644154258
1006,20.136841418945175
1007,20.085653337741399
2,1, 1,21, 0,23, 0.00,60.00,WinterDesignDay
990,20.112733962731608
991,15.667015318710919
992,18.101188898858909
993,18.64447152882402
994,19.72404299502254
995,19.008436870101087
996,16.304393567073455
997,16.186042531672969
998,16.254130951326773
999,16.147833412535904
1000,17.449958193143389
1001,17.28181719426366
1002,17.37573817519891
1003,17.238624018569764
1004,16.82683392148025
1005,16.64764059204906
1006,16.750813747432117
1007,16.603023584495714
2,1, 1,21, 0,24, 0.00,60.00,WinterDesignDay
990,19.88212650996632
991,14.505983308542657
992,17.43702479616877
993,18.118284990530648
994,18.98910217473356
995,17.721896752012
996,15.401900799205596
997,15.376932559130456
998,15.390423413305689
999,15.367090061264705
1000,16.09734807222212
1001,15.970461803116804
1002,16.029009654596483
1003,15.911139513942887
1004,15.402147406429524
1005,15.320745959384347
1006,15.367917575752309
1007,15.28502122264851
1,BUFFALO.NIAGARA.INTL.AP_NY_USA ANN CLG .4% CONDNS DB=>MWB,  42.93, -78.73,  -5.00, 215.00
2,1, 7,21, 0, 1, 0.00,60.00,SummerDesignDay
990,27.28961811165891
991,25.762647385513586
992,26.191922938965605
993,26.36682633485779
994,26.5169795387947
995,26.603928584059685
996,26.0386171769898
997,25.352610060399578
998,25.753716781073356
999,25.567164884537247
1000,25.150076212373859
1001,23.949279996899308
1002,24.74727343738352
1003,24.195813892634498
1004,26.07458302145302
1005,24.96604787658257
1006,25.5928579886901
1007,25.250075531774529
2,1, 7,21, 0, 2, 0.00,60.00,SummerDesignDay
990,27.227353748850577
991,25.680561762653704
992,26.05894082025732
993,26.429804312387568
994,26.249276333147788
995,26.390904636197239
996,25.68892189627448
997,24.668797676346246
998,25.227733968980624
999,24.80388353303376
1000,25.12821866183857
1001,23.835131523357853
1002,24.681501343447274
1003,24.02790900023509
1004,25.69441084790861
1005,24.253478989272723
1006,25.04635736246018
1007,24.495122150153497
2,1, 7,21, 0, 3, 0.00,60.00,SummerDesignDay
990,27.760226008532006
991,25.676437383146327
992,26.05695540712886
993,26.495233753497915
994,26.49286684267919
995,26.21574782891209
996,25.46467716513221
997,24.31169624814109
998,24.937098485948085
999,24.416465634145906
1000,25.340006321311877
1001,24.14062231745758
1002,24.924713939672008
1003,24.31477696446613
1004,25.851473507572736
1005,24.491390189800204
1006,25.242677238075119
1007,24.712192496411288
2,1, 7,21, 0, 4, 0.00,60.00,SummerDesignDay
990,27.29850131072112
991,25.535730721648805
992,26.042521281922068
993,26.552417082747927
994,26.373259004988236
995,26.330587209539549
996,25.50306492227549
997,24.348684714711785
998,24.96225365427305
999,24.4288558957382
1000,25.16119209256323
1001,23.774042220122995
1002,24.67647152376997
1003,23.915855999162156
1004,25.634636647333019
1005,23.985766881973697
1006,24.893038807330468
1007,24.18636953932769
2,1, 7,21, 0, 5, 0.00,60.00,SummerDesignDay
990,27.254058773714794
991,25.44229361843887
992,26.024005910159596
993,26.50823957017024
994,26.351381070891685
995,26.14436309817843
996,25.207253204011179
997,23.809060399590327
998,24.53530188903686
999,23.828410023547677
1000,25.126356384553163
1001,23.76107245728484
1002,24.64747931923603
1003,23.89137833197442
1004,25.615445575062386
1005,23.966796615190324
1006,24.870843801679066
1007,24.161092545750774
2,1, 7,21, 0, 6, 0.00,60.00,SummerDesignDay
990,27.77534804545992
991,25.413305492883329
992,26.09062985688368
993,26.56993345509036
994,26.611914288530408
995,26.10700853752425
996,25.351987255959096
997,24.398472553204493
998,24.49034502377792
999,23.78646545244527
1000,25.5489717971113
1001,24.724793591576338
1002,24.89448108847936
1003,24.20123954228435
1004,26.03760500877283
1005,24.89902304677264
1006,25.140451723585984
1007,24.488802935238277
2,1, 7,21, 0, 7, 0.00,60.00,SummerDesignDay
990,25.344837225586177
991,25.420724706526319
992,25.90072432131935
993,26.169543442974914
994,25.0932718878239
995,25.017217249163119
996,24.999257091326454
997,24.9895731340249
998,24.462504400910704
999,23.666485806967367
1000,25.012572537965768
1001,24.974621812852399
1002,24.69582910431281
1003,23.851999349365287
1004,25.018399876273976
1005,24.944887176344737
1006,24.77669763321833
1007,24.035382905245848
2,1, 7,21, 0, 8, 0.00,60.00,SummerDesignDay
990,24.833252582268213
991,25.189175834114196
992,25.318986069073014
993,25.512103957948925
994,24.354252215270738
995,24.061209100546109
996,24.033489078624578
997,24.0332837136908
998,24.004791130877064
999,23.93950295961728
1000,24.220336117191839
1001,24.434731707711778
1002,24.02236153581329
1003,24.00916471495268
1004,24.165913643126318
1005,24.311940284428144
1006,24.025444825682574
1007,24.011498817167568
2,1, 7,21, 0, 9, 0.00,60.00,SummerDesignDay
990,24.955016739449879
991,25.26353930953277
992,25.196561329804763
993,25.48704176226967
994,24.312206432945794
995,23.99914629503229
996,23.99890238855818
997,23.99903034889234
998,23.998847407660536
999,23.99873235014205
1000,24.244079010467304
1001,24.934702981709174
1002,24.051050796081748
1003,24.046507130092289
1004,24.176517805708117
1005,24.74569236188509
1006,24.0686517952779
1007,24.06357638014235
2,1, 7,21, 0,10, 0.00,60.00,SummerDesignDay
990,24.322377602946376
991,25.501109999482975
992,25.164413160870564
993,25.329059302088234
994,24.013519641267938
995,23.998951931692625
996,23.998740685427195
997,23.99882029909906
998,23.998654077569968
999,23.998618998443573
1000,24.02929071424591
1001,24.221316598320987
1002,24.016570945011645
1003,24.01329363447519
1004,24.003978660835409
1005,24.047589337873949
1006,24.001180173070094
1007,24.000716351030368
2,1, 7,21, 0,11, 0.00,60.00,SummerDesignDay
990,24.025557708997697
991,25.732350149512578
992,25.12867071103317
993,25.1627328754582
994,23.998922517495424
995,23.999079361922584
996,23.99884650483318
997,23.998972674377563
998,23.998812023781178
999,23.99869930585467
1000,23.9988868902251
1001,24.001866723342905
1002,23.998994618429717
1003,23.998708786816989
1004,23.998759826768745
1005,23.998907079968107
1006,23.998715694579859
1007,23.998608894511677
2,1, 7,21, 0,12, 0.00,60.00,SummerDesignDay
990,23.999118715085204
991,25.91272793252942
992,25.13651804597447
993,25.13096754309953
994,23.999107041599406
995,23.999150707679357
996,23.998905105335966
997,23.998996345648267
998,23.9989269525874
999,23.998762561957379
1000,23.99885208641302
1001,23.999001759298517
1002,23.99888200489844
1003,23.998700350626647
1004,23.998898481291989
1005,23.99899198811108
1006,23.99891422553555
1007,23.998755306414347
2,1, 7,21, 0,13, 0.00,60.00,SummerDesignDay
990,23.99914993078729
991,26.019545626445827
992,25.13873431678966
993,25.125983694327208
994,23.99914530959715
995,23.999163816417345
996,23.998890269284379
997,23.99886732748233
998,23.99895534924847
999,23.99869929604147
1000,23.99889225932735
1001,23.9989004507103
1002,23.998971462585673
1003,23.998684777258874
1004,23.99890013189406
1005,23.9988785229083
1006,23.99896107302294
1007,23.998706589332664
2,1, 7,21, 0,14, 0.00,60.00,SummerDesignDay
990,23.999147308148456
991,26.046990567557189
992,25.133562317269683
993,25.115788907011415
994,23.999137492324839
995,23.999153380292804
996,23.998858027579364
997,23.998754711671574
998,23.99895189981379
999,23.998558466212307
1000,23.998869617233085
1001,23.998779321958783
1002,23.998983596686334
1003,23.99852794398676
1004,23.9988675910664
1005,23.99876520911645
1006,23.998960312549437
1007,23.99855765611337
2,1, 7,21, 0,15, 0.00,60.00,SummerDesignDay
990,23.999127913219249
991,26.01609299239488
992,25.13269262681235
993,25.11010732170014
994,23.99912111838761
995,23.999133036985684
996,23.99887183482756
997,23.998773050795259
998,23.99897522395672
999,23.99867036714379
1000,23.998890291618339
1001,23.998799521470738
1002,23.99902005335914
1003,23.998676742910179
1004,23.998885052791456
1005,23.998787645953184
1006,23.998991657400006
1007,23.99867862897862
2,1, 7,21, 0,16, 0.00,60.00,SummerDesignDay
990,23.99911701677224
991,25.93304104263741
992,25.136571044854386
993,25.108739723357155
994,23.99911527914949
995,23.999118963620345
996,23.998927753944785
997,23.99885952026412
998,23.999017413873685
999,23.998848976737489
1000,23.99896213292503
1001,23.99890122034541
1002,23.9990785266971
1003,23.998902942692653
1004,23.998951049759179
1005,23.998884823699869
1006,23.99904605121397
1007,23.998878320485784
2,1, 7,21, 0,17, 0.00,60.00,SummerDesignDay
990,23.999107945412385
991,25.792368619635647
992,25.14002660347569
993,25.106969631694008
994,23.99911056408658
995,23.99910600674499
996,23.998912313108439
997,23.998834360880566
998,23.99897802992863
999,23.998882574498127
1000,23.998958261000046
1001,23.998887278525986
1002,23.99904681200129
1003,23.998958670179609
1004,23.99894526512408
1005,23.998869401982888
1006,23.99901562035412
1007,23.998928760902964
2,1, 7,21, 0,18, 0.00,60.00,SummerDesignDay
990,23.999090420741056
991,25.59880643661505
992,25.142303726087719
993,25.104199306221248
994,23.999099520217926
995,23.99908827843739
996,23.998854121094998
997,23.998797280624719
998,23.998917005288975
999,23.998905120780046
1000,23.998895246340739
1001,23.99885143016849
1002,23.998979021717088
1003,23.99898873701482
1004,23.998893315459335
1005,23.998838143951305
1006,23.99895943065639
1007,23.998961898838969
2,1, 7,21, 0,19, 0.00,60.00,SummerDesignDay
990,23.999083261453504
991,25.36233804230525
992,25.14407931527991
993,25.10080985538067
994,23.9990934657258
995,23.999075589725107
996,23.998908054001399
997,23.998874467239796
998,23.99895369941987
999,23.99900083727409
1000,23.998963059242255
1001,23.998936940701808
1002,23.99902094532553
1003,23.9990988966193
1004,23.998955547997473
1005,23.99892119274287
1006,23.999001437882769
1007,23.999063559836175
2,1, 7,21, 0,20, 0.00,60.00,SummerDesignDay
990,23.99909539770389
991,25.096916769374677
992,25.147942625220979
993,25.098081243959486
994,23.999112980998015
995,23.999091261658408
996,23.999005082904256
997,23.998889645417589
998,23.998954293895094
999,23.99909954737956
1000,23.999073628321704
1001,23.9955372123532
1002,23.999012182803449
1003,23.999194649419587
1004,23.99905541711075
1005,23.99894013552527
1006,23.999005220423869
1007,23.99915678526201
2,1, 7,21, 0,21, 0.00,60.00,SummerDesignDay
990,23.999653252800834
991,24.839674310482608
992,25.129980048474743
993,25.07347402199771
994,23.99950661791802
995,23.999126843196245
996,23.999004549109764
997,23.99894183197845
998,23.998993232810354
999,23.999039536238479
1000,23.999366100964644
1001,23.9100041110403
1002,23.999354697589366
1003,23.999471624752759
1004,23.999402862926769
1005,23.99934679545661
1006,23.99939960766777
1007,23.999490278036249
2,1, 7,21, 0,22, 0.00,60.00,SummerDesignDay
990,23.99937179407921
991,24.67354836060038
992,25.10506014307049
993,25.04188756459944
994,23.999388785531698
995,23.999802205358564
996,23.99962085758424
997,23.96397137857809
998,23.999633746994964
999,23.999676941401697
1000,23.999265533429019
1001,23.785048340178486
1002,23.999267625118898
1003,23.999272021150519
1004,23.999250067717548
1005,23.999065854562855
1006,23.99925187497431
1007,23.999239417998639
2,1, 7,21, 0,23, 0.00,60.00,SummerDesignDay
990,26.972597104218047
991,25.082615291788235
992,25.76976693056219
993,25.858272981828699
994,26.13526151819501
995,26.291421072854154
996,26.0379498696999
997,25.98260835276448
998,26.067334661325224
999,26.22484873424193
1000,25.01851006526796
1001,24.29708505712108
1002,24.833749619881613
1003,24.61702580026745
1004,25.90201307304145
1005,25.613253188183515
1006,25.78318018186644
1007,25.851217527351126
2,1, 7,21, 0,24, 0.00,60.00,SummerDesignDay
990,27.208977725804759
991,25.628665636205459
992,26.127236812256233
993,26.290550868415957
994,26.55893225754503
995,26.282959179068564
996,25.829508648754744
997,25.0601551287522
998,25.508204257610726
999,25.274411215263706
1000,25.063628294594154
1001,23.85728750618587
1002,24.67820019933923
1003,24.158302211825349
1004,26.220949746178385
1005,25.398332334947864
1006,25.850651736509947
1007,25.725556746459924
1,RUNPERIOD 1,  42.93, -78.73,  -5.00, 215.00
2,1, 7, 1, 1, 1, 0.00,60.00,Sunday
990,24.95673255457221
991,24.046933070023799
992,25.12278352480095
993,24.79986011113657
994,25.525286127606728
995,25.41944639598269
996,24.59928505101196
997,24.751860146554337
998,24.650610473589429
999,24.8378269485843
1000,23.99403711921772
1001,24.202925479393366
1002,24.116197129440054
1003,24.35978502608382
1004,24.70391159742452
1005,24.860321667637533
1006,24.769752963871804
1007,24.984270581163103
2,1, 7, 1, 1, 2, 0.00,60.00,Sunday
990,24.805065409405264
991,23.827788629267717
992,25.06310182244559
993,24.733804739499996
994,25.52599155993949
995,25.348358532676824
996,24.402910099401397
997,24.532452621799487
998,24.441133588157734
999,24.60105786829425
1000,23.838249000918613
1001,24.015404725618806
1002,23.938616794394805
1003,24.146260486457359
1004,24.56171139840124
1005,24.693862356640517
1006,24.61358416071603
1007,24.795567344288153
2,1, 7, 1, 1, 3, 0.00,60.00,Sunday
990,24.780881262054863
991,23.70209828999629
992,25.01503630674497
993,24.682923620352765
994,25.522819173787615
995,25.28588588050396
996,24.256246097745007
997,24.363774123978524
998,24.285236526097994
999,24.4199004650783
1000,23.727349281302375
1001,23.876301900034368
1002,23.810154718054667
1003,23.9867906642237
1004,24.46032468368903
1005,24.569693173180644
1006,24.50171127422024
1007,24.655732494642196
2,1, 7, 1, 1, 4, 0.00,60.00,Sunday
990,24.762691839314628
991,23.54907313571007
992,24.9642558695556
993,24.635141339165139
994,25.515322404618169
995,25.225268392307809
996,24.065991528991267
997,24.1522851543275
998,24.092605910649647
999,24.204032646922874
1000,23.560182620869417
1001,23.681947948000948
1002,23.632663140047005
1003,23.781750873627755
1004,24.31104035884559
1005,24.398856803670804
1006,24.34798389894088
1007,24.477494836437804
2,1, 7, 1, 1, 5, 0.00,60.00,Sunday
990,24.74537701064197
991,23.35477791118118
992,24.919350006705739
993,24.593281417362836
994,25.50320648946368
995,25.149996168967915
996,23.966923710279834
997,24.084065973512304
998,23.932286611374754
999,24.024744918125074
1000,23.49469724551438
1001,23.644899075989536
1002,23.498968459788494
1003,23.622239232749459
1004,24.255389215261788
1005,24.374297984322426
1006,24.229350950842006
1007,24.337949299637346
2,1, 7, 1, 1, 6, 0.00,60.00,Sunday
990,24.86656047406681
991,23.367381644691684
992,24.973252935726238
993,24.625781791019013
994,25.510581193128215
995,25.185088935034359
996,24.775344286082399
997,26.048004723864673
998,24.01225198109378
999,24.07360630847513
1000,24.447596888478146
1001,25.870651910730048
1002,23.66336367561128
1003,23.768920710516058
1004,25.04128910799286
1005,26.252744933052797
1006,24.243410818827948
1007,24.281240937842399
2,1, 7, 1, 1, 7, 0.00,60.00,Sunday
990,23.4225126166174
991,23.84264955052664
992,24.855418866641644
993,24.458743431306865
994,24.209132434544637
995,23.963224464708085
996,24.0839357430447
997,26.22960367114736
998,22.920385157067764
999,22.52754504494066
1000,23.745484614556465
1001,26.2978915041496
1002,22.702986259031744
1003,22.291074105574827
1004,24.461181639653483
1005,26.45034261566179
1006,23.265594933596149
1007,22.86352263991156
2,1, 7, 1, 1, 8, 0.00,60.00,Sunday
990,22.983672496752037
991,24.2015758438095
992,24.791306816984816
993,24.32858421302785
994,24.040277389491896
995,23.883686696624936
996,24.0049501038924
997,27.135372692471038
998,23.149422587531
999,22.690158426217495
1000,23.494516916499255
1001,26.706176945740766
1002,22.737774351814843
1003,22.194385102818207
1004,24.34567564504747
1005,27.278485917693897
1006,23.443471982442405
1007,22.976164664115069
2,1, 7, 1, 1, 9, 0.00,60.00,Sunday
990,23.02666871348057
991,24.61996157661104
992,24.7382364313732
993,24.332584762858028
994,23.71399685090251
995,23.624153856343768
996,23.826158740711067
997,26.602635683917563
998,23.127259937791906
999,22.47297460936705
1000,23.604130111222128
1001,27.065865230188174
1002,23.125962240621094
1003,22.505322151167179
1004,24.108595222752258
1005,26.678220597992714
1006,23.35669812248753
1007,22.691383101452784
2,1, 7, 1, 1,10, 0.00,60.00,Sunday
990,22.74771276219104
991,25.093420441582088
992,24.743603534707817
993,24.333325647963897
994,23.667618696072649
995,23.662818637469799
996,23.999369062867584
997,26.83729817036258
998,23.672344534828974
999,22.660494438683906
1000,23.50444421915823
1001,26.67782348232859
1002,23.381351128493539
1003,22.283232058388479
1004,24.191402084037479
1005,26.87579570755006
1006,23.822194567020575
1007,22.795601198199117
2,1, 7, 1, 1,11, 0.00,60.00,Sunday
990,22.71827522472104
991,25.627029779142697
992,24.809062628104049
993,24.324335958152245
994,23.795995703307534
995,23.901089583056323
996,24.39512948389846
997,26.64400485241933
998,24.515386239028687
999,23.156983742137159
1000,23.633803826741578
1001,26.052508957707205
1002,23.902976753889456
1003,22.422325691429266
1004,24.471053888816568
1005,26.623283813745663
1006,24.56440140039398
1007,23.191451496513169
2,1, 7, 1, 1,12, 0.00,60.00,Sunday
990,23.52508882202299
991,25.942867323197217
992,24.89808371355582
993,24.55168429556602
994,23.99035765184817
995,24.16948928655756
996,24.82620384418802
997,25.86015667003857
998,24.976021060922549
999,23.60946907637119
1000,24.47304041710086
1001,26.290837217077763
1002,24.992598944564546
1003,23.646740481165489
1004,24.83104561216703
1005,25.889971664699809
1006,24.965591917035078
1007,23.59621407496801
2,1, 7, 1, 1,13, 0.00,60.00,Sunday
990,23.580401748544554
991,26.449360549969698
992,25.02465831655442
993,24.624558846743168
994,24.06503951467438
995,24.307533581179738
996,25.07171884212765
997,25.525657485039017
998,25.830435725860583
999,23.880337208908168
1000,24.756315496627566
1001,25.845570592612107
1002,26.07276129513685
1003,24.11420806830678
1004,25.10655638979559
1005,25.65057579890584
1006,26.001462011658327
1007,24.02195875598117
2,1, 7, 1, 1,14, 0.00,60.00,Sunday
990,23.509852448751209
991,26.780918130322914
992,25.113665860859677