Program Version,EnergyPlus-Windows-64 8.0.0.007, YMD=2019.06.17 13:52
1,5,Environment Title[],Latitude[deg],Longitude[deg],Time Zone[],Elevation[m]
2,6,Day of Simulation[],Month[],Day of Month[],DST Indicator[1=yes 0=no],Hour[],StartMinute[],EndMinute[],DayType
3,3,Cumulative Day of Simulation[],Month[],Day of Month[],DST Indicator[1=yes 0=no],DayType  ! When Daily Meters Requested
4,2,Cumulative Days of Simulation[],Month[]  ! When Monthly Meters Requested
5,1,Cumulative Days of Simulation[] ! When Run Period Meters Requested
73,1,Electricity:Facility [J] !Hourly
1786,1,ElectricityNet:Facility [J] !Hourly
731,1,Gas:Facility [J] !Hourly
103,1,InteriorLights:Electricity [J] !Hourly
473,1,InteriorEquipment:Electricity [J] !Hourly
End of Data Dictionary
1,BUFFALO.NIAGARA.INTL.AP_NY_USA ANN HTG 99.6% CONDNS DB,  42.93, -78.73,  -5.00, 215.00
2,1, 1,21, 0, 1, 0.00,60.00,WinterDesignDay
73,63298786.719446
103,0.0
473,0.0
731,14043111.9262062
1786,63298786.719446
2,1, 1,21, 0, 2, 0.00,60.00,WinterDesignDay
73,62388405.3537211
103,0.0
473,0.0
731,15964738.5968011
1786,62388405.3537211
2,1, 1,21, 0, 3, 0.00,60.00,WinterDesignDay
73,57584752.9831304
103,0.0
473,0.0
731,13985910.3704059
1786,57584752.9831304
2,1, 1,21, 0, 4, 0.00,60.00,WinterDesignDay
73,92623428.2355329
103,0.0
473,0.0
731,18957823.7585012
1786,92623428.2355329
2,1, 1,21, 0, 5, 0.00,60.00,WinterDesignDay
73,95538860.6502903
103,0.0
473,0.0
731,20255967.8769675
1786,95538860.6502903
2,1, 1,21, 0, 6, 0.00,60.00,WinterDesignDay
73,195461851.002898
103,0.0
473,0.0
731,15174777.4568769
1786,195461851.002898
2,1, 1,21, 0, 7, 0.00,60.00,WinterDesignDay
73,523103357.05655
103,0.0
473,0.0
731,13943492.7901543
1786,523103357.05655
2,1, 1,21, 0, 8, 0.00,60.00,WinterDesignDay
73,638130160.129707
103,0.0
473,0.0
731,356816851.846417
1786,638130160.129707
2,1, 1,21, 0, 9, 0.00,60.00,WinterDesignDay
73,541568816.676257
103,0.0
473,0.0
731,352788912.275353
1786,541568816.676257
2,1, 1,21, 0,10, 0.00,60.00,WinterDesignDay
73,513152444.678532
103,0.0
473,0.0
731,351570053.460593
1786,513152444.678532
2,1, 1,21, 0,11, 0.00,60.00,WinterDesignDay
73,496030467.240246
103,0.0
473,0.0
731,350918772.154812
1786,496030467.240246
2,1, 1,21, 0,12, 0.00,60.00,WinterDesignDay
73,482795911.769549
103,0.0
473,0.0
731,350555586.883518
1786,482795911.769549
2,1, 1,21, 0,13, 0.00,60.00,WinterDesignDay
73,471935652.152932
103,0.0
473,0.0
731,350304854.669248
1786,471935652.152932
2,1, 1,21, 0,14, 0.00,60.00,WinterDesignDay
73,462450878.497191
103,0.0
473,0.0
731,350097812.914952
1786,462450878.497191
2,1, 1,21, 0,15, 0.00,60.00,WinterDesignDay
73,454197300.205539
103,0.0
473,0.0
731,349905771.741214
1786,454197300.205539
2,1, 1,21, 0,16, 0.00,60.00,WinterDesignDay
73,446845845.143698
103,0.0
473,0.0
731,349723593.529445
1786,446845845.143698
2,1, 1,21, 0,17, 0.00,60.00,WinterDesignDay
73,440136704.940742
103,0.0
473,0.0
731,349553513.609181
1786,440136704.940742
2,1, 1,21, 0,18, 0.00,60.00,WinterDesignDay
73,453295662.729765
103,0.0
473,0.0
731,349373918.318044
1786,453295662.729765
2,1, 1,21, 0,19, 0.00,60.00,WinterDesignDay
73,382147376.058024
103,0.0
473,0.0
731,6791184.
1786,382147376.058024
2,1, 1,21, 0,20, 0.00,60.00,WinterDesignDay
73,401859050.436695
103,0.0
473,0.0
731,6791184.
1786,401859050.436695
2,1, 1,21, 0,21, 0.00,60.00,WinterDesignDay
73,269721621.988856
103,0.0
473,0.0
731,6791184.
1786,269721621.988856
2,1, 1,21, 0,22, 0.00,60.00,WinterDesignDay
73,401781786.72495
103,0.0
473,0.0
731,6791184.
1786,401781786.72495
2,1, 1,21, 0,23, 0.00,60.00,WinterDesignDay
73,23903716.7785531
103,0.0
473,0.0
731,7085288.42989291
1786,23903716.7785531
2,1, 1,21, 0,24, 0.00,60.00,WinterDesignDay
73,38864006.566906
103,0.0
473,0.0
731,9312971.31856647
1786,38864006.566906
1,BUFFALO.NIAGARA.INTL.AP_NY_USA ANN CLG .4% CONDNS DB=>MWB,  42.93, -78.73,  -5.00, 215.00
2,1, 7,21, 0, 1, 0.00,60.00,SummerDesignDay
73,484008616.993853
103,152517470.754275
473,224813060.552967
731,6791184.
1786,484008616.993853
2,1, 7,21, 0, 2, 0.00,60.00,SummerDesignDay
73,484336238.481754
103,152517470.754275
473,224813060.552967
731,6791184.
1786,484336238.481754
2,1, 7,21, 0, 3, 0.00,60.00,SummerDesignDay
73,456297970.428424
103,152517470.754275
473,224813060.552967
731,6791184.
1786,456297970.428424
2,1, 7,21, 0, 4, 0.00,60.00,SummerDesignDay
73,490999515.613709
103,152517470.754275
473,224813060.552967
731,6791184.
1786,490999515.613709
2,1, 7,21, 0, 5, 0.00,60.00,SummerDesignDay
73,483060543.05216
103,152517470.754275
473,224813060.552967
731,6791184.
1786,483060543.05216
2,1, 7,21, 0, 6, 0.00,60.00,SummerDesignDay
73,421796637.727009
103,127102446.884894
473,224813060.552967
731,6791184.
1786,421796637.727009
2,1, 7,21, 0, 7, 0.00,60.00,SummerDesignDay
73,561940444.109611
103,120037894.752015
473,224813060.552967
731,6791184.
1786,561940444.109611
2,1, 7,21, 0, 8, 0.00,60.00,SummerDesignDay
73,686642716.616808
103,119991185.404671
473,224813060.552967
731,6791184.
1786,686642716.616808
2,1, 7,21, 0, 9, 0.00,60.00,SummerDesignDay
73,697775826.877522
103,119991185.404671
473,224813060.552967
731,6791184.
1786,697775826.877522
2,1, 7,21, 0,10, 0.00,60.00,SummerDesignDay
73,693835746.217864
103,119991185.404671
473,224813060.552967
731,6791184.
1786,693835746.217864
2,1, 7,21, 0,11, 0.00,60.00,SummerDesignDay
73,687057907.268253
103,119991185.404671
473,224813060.552967
731,6791184.
1786,687057907.268253
2,1, 7,21, 0,12, 0.00,60.00,SummerDesignDay
73,690227650.184436
103,119991185.404671
473,224813060.552967
731,15902567.2880595
1786,690227650.184435
2,1, 7,21, 0,13, 0.00,60.00,SummerDesignDay
73,695317341.87965
103,119991185.404671
473,224813060.552967
731,25717124.4658965
1786,695317341.87965
2,1, 7,21, 0,14, 0.00,60.00,SummerDesignDay
73,711841363.679081
103,119991185.404671
473,224813060.552967
731,25647640.9426852
1786,711841363.679081
2,1, 7,21, 0,15, 0.00,60.00,SummerDesignDay
73,717971216.016906
103,119991185.404671
473,224813060.552967
731,15626078.3891132
1786,717971216.016906
2,1, 7,21, 0,16, 0.00,60.00,SummerDesignDay
73,716244834.062572
103,119991185.404671
473,224813060.552967
731,15504678.1630395
1786,716244834.062572
2,1, 7,21, 0,17, 0.00,60.00,SummerDesignDay
73,707009693.571166
103,119991185.404671
473,224813060.552967
731,20287941.4828367
1786,707009693.571166
2,1, 7,21, 0,18, 0.00,60.00,SummerDesignDay
73,684531473.475569
103,119991185.404671
473,224813060.552967
731,11064810.2978257
1786,684531473.475568
2,1, 7,21, 0,19, 0.00,60.00,SummerDesignDay
73,650561420.076409
103,120994448.161721
473,224813060.552967
731,11004793.7254545
1786,650561420.076409
2,1, 7,21, 0,20, 0.00,60.00,SummerDesignDay
73,637669398.113793
103,146537977.733559
473,224813060.552967
731,6791184.
1786,637669398.113793
2,1, 7,21, 0,21, 0.00,60.00,SummerDesignDay
73,649473382.6163
103,152517470.754275
473,224813060.552967
731,10911150.5612876
1786,649473382.6163
2,1, 7,21, 0,22, 0.00,60.00,SummerDesignDay
73,666730236.172618
103,152517470.754275
473,224813060.552967
731,6791184.
1786,666730236.172618
2,1, 7,21, 0,23, 0.00,60.00,SummerDesignDay
73,461376628.557063
103,152517470.754275
473,224813060.552967
731,6791184.
1786,461376628.557063
2,1, 7,21, 0,24, 0.00,60.00,SummerDesignDay
73,471187116.481998
103,152517470.754275
473,224813060.552967
731,6791184.
1786,471187116.481998
1,Buffalo Niagara Intl Ap NY USA TMY3 WMO#=725280,  42.93, -78.73,  -5.00, 215.00
2,1, 1, 1, 0, 1, 0.00,60.00,Holiday        
73,93986808.3508502
103,3861201.79133858
473,33399901.5013581
731,15397383.3132636
1786,93986808.3508502
2,1, 1, 1, 0, 2, 0.00,60.00,Holiday        
73,84031085.1324227
103,3861201.79133858
473,33399901.5013581
731,14969993.4840189
1786,84031085.1324227
2,1, 1, 1, 0, 3, 0.00,60.00,Holiday        
73,74076474.6549582
103,3861201.79133858
473,33399901.5013581
731,12263857.8419105
1786,74076474.6549582
2,1, 1, 1, 0, 4, 0.00,60.00,Holiday        
73,86381920.5914761
103,3861201.79133858
473,33399901.5013581
731,14983677.1009109
1786,86381920.5914761
2,1, 1, 1, 0, 5, 0.00,60.00,Holiday        
73,79260156.4125715
103,3861201.79133858
473,33399901.5013581
731,14152047.9728018
1786,79260156.4125715
2,1, 1, 1, 0, 6, 0.00,60.00,Holiday        
73,69496128.459089
103,3861201.79133858
473,33399901.5013581
731,11840885.9901037
1786,69496128.4590889
2,1, 1, 1, 0, 7, 0.00,60.00,Holiday        
73,102316899.134116
103,5897289.92828448
473,41385398.9087341
731,14902558.6407756
1786,102316899.134116
2,1, 1, 1, 0, 8, 0.00,60.00,Holiday        
73,93323533.0972825
103,6533137.6626078
473,41385398.9087341
731,14251651.0026778
1786,93323533.0972825
2,1, 1, 1, 0, 9, 0.00,60.00,Holiday        
73,69959575.4051112
103,5776264.95971396
473,41385398.9087341
731,12062589.2942888
1786,69959575.4051112
2,1, 1, 1, 0,10, 0.00,60.00,Holiday        
73,73132152.9080088
103,5251502.9794302
473,41385398.9087341
731,14178774.181721
1786,73132152.9080088
2,1, 1, 1, 0,11, 0.00,60.00,Holiday        
73,69537781.4999942
103,5211428.96900915
473,41385398.9087341
731,12127322.1367093
1786,69537781.4999942
2,1, 1, 1, 0,12, 0.00,60.00,Holiday        
73,58601854.4237488
103,5173573.54743972
473,41385398.9087341
731,9926725.4793571
1786,58601854.4237488
2,1, 1, 1, 0,13, 0.00,60.00,Holiday        
73,63064269.6824565
103,5173573.54743972
473,41385398.9087341
731,10162763.0990758
1786,63064269.6824565
2,1, 1, 1, 0,14, 0.00,60.00,Holiday        
73,57278632.3742387
103,5176754.90960706
473,41385398.9087341
731,8743412.64974653
1786,57278632.3742387
2,1, 1, 1, 0,15, 0.00,60.00,Holiday        
73,54741011.7946623
103,5223834.28591898
473,41385398.9087341
731,7891761.53037006
1786,54741011.7946623
2,1, 1, 1, 0,16, 0.00,60.00,Holiday        
73,61395582.8349354
103,5359878.97289199
473,41385398.9087341
731,8872969.1552942
1786,61395582.8349354
2,1, 1, 1, 0,17, 0.00,60.00,Holiday        
73,80105221.6746134
103,6308914.86121663
473,41385398.9087341
731,9527802.22844673
1786,80105221.6746134
2,1, 1, 1, 0,18, 0.00,60.00,Holiday        
73,92941914.2211884
103,6575985.97393312
473,41385398.9087341
731,9538380.93663705
1786,92941914.2211884
2,1, 1, 1, 0,19, 0.00,60.00,Holiday        
73,99685099.8955527
103,4802369.72793237
473,33399901.5013581
731,13060617.3678682
1786,99685099.8955526
2,1, 1, 1, 0,20, 0.00,60.00,Holiday        
73,88703852.0202506
103,3861201.79133858
473,33399901.5013581
731,13775966.3102588
1786,88703852.0202506
2,1, 1, 1, 0,21, 0.00,60.00,Holiday        
73,85238835.8247337
103,3861201.79133858
473,33399901.5013581
731,11940039.3427416
1786,85238835.8247337
2,1, 1, 1, 0,22, 0.00,60.00,Holiday        
73,95930511.560027
103,3861201.79133858
473,33399901.5013581
731,14974314.2936095
1786,95930511.560027
2,1, 1, 1, 0,23, 0.00,60.00,Holiday        
73,95524957.1405234
103,3861201.79133858
473,33399901.5013581
731,14734369.61855
1786,95524957.1405234
2,1, 1, 1, 0,24, 0.00,60.00,Holiday        
73,95945843.1375992
103,3861201.79133858
473,33399901.5013581
731,13094672.221693
1786,95945843.1375992
2,2, 1, 2, 0, 1, 0.00,60.00,Monday         
73,110738307.293291
103,3861201.79133858
473,44533202.0018108
731,16361272.1655339
1786,110738307.293291
2,2, 1, 2, 0, 2, 0.00,60.00,Monday         
73,109275376.634332
103,3861201.79133858
473,44533202.0018108
731,15954544.6662263
1786,109275376.634332
2,2, 1, 2, 0, 3, 0.00,60.00,Monday         
73,105006289.0521
103,3861201.79133858
473,44533202.0018108
731,13212540.1126764
1786,105006289.0521
2,2, 1, 2, 0, 4, 0.00,60.00,Monday         
73,118474039.285568
103,3861201.79133858
473,44533202.0018108
731,17101871.6382809
1786,118474039.285568
2,2, 1, 2, 0, 5, 0.00,60.00,Monday         
73,108609231.266297
103,3861201.79133858
473,44533202.0018108
731,16610950.3250286
1786,108609231.266297
2,2, 1, 2, 0, 6, 0.00,60.00,Monday         
73,246416980.762657
103,3861201.79133858
473,44533202.0018108
731,11001289.8557162
1786,246416980.762657
2,2, 1, 2, 0, 7, 0.00,60.00,Monday         
73,608074093.838315
103,10829279.4087343
473,55180531.8783121
731,7740624.33866271
1786,608074093.838315
2,2, 1, 2, 0, 8, 0.00,60.00,Monday         
73,697024359.243204
103,39198825.9756468
473,95796493.4167736
731,171824872.344126
1786,697024359.243204
2,2, 1, 2, 0, 9, 0.00,60.00,Monday         
73,658263773.383181
103,103972769.274851
473,204227663.759169
731,169310548.486966
1786,658263773.383181
2,2, 1, 2, 0,10, 0.00,60.00,Monday         
73,554215706.282599
103,94548069.7274163
473,174055806.616312
731,161697269.031211
1786,554215706.282599
2,2, 1, 2, 0,11, 0.00,60.00,Monday         
73,501364420.004136
103,93181588.3729271
473,167093070.352576
731,157027041.909726
1786,501364420.004136
2,2, 1, 2, 0,12, 0.00,60.00,Monday         
73,470551774.877684
103,93124323.8539151
473,174055806.616312
731,167921074.012869
1786,470551774.877684
2,2, 1, 2, 0,13, 0.00,60.00,Monday         
73,499348439.839883
103,93124323.8539151
473,177667514.306075
731,164415707.1396
1786,499348439.839883
2,2, 1, 2, 0,14, 0.00,60.00,Monday         
73,439769003.178029
103,93124323.8539151
473,179858086.836092
731,167804101.530559
1786,439769003.178029
2,2, 1, 2, 0,15, 0.00,60.00,Monday         
73,411250560.445618
103,94029017.1465418
473,167093070.352576
731,155367290.354948
1786,411250560.445618
2,2, 1, 2, 0,16, 0.00,60.00,Monday         
73,408767510.761715
103,97960965.2416809
473,167093070.352576
731,154355047.813241
1786,408767510.761715
2,2, 1, 2, 0,17, 0.00,60.00,Monday         
73,430976973.206026
103,113459662.402154
473,177537174.74818
731,154862649.258978
1786,430976973.206026
2,2, 1, 2, 0,18, 0.00,60.00,Monday         
73,449397051.664296
103,65759859.7393312
473,140923939.573165
731,155399993.369725
1786,449397051.664296
2,2, 1, 2, 0,19, 0.00,60.00,Monday         
73,366082893.61064
103,39455915.8435987
473,69106004.4057846
731,149430939.53583
1786,366082893.61064
2,2, 1, 2, 0,20, 0.00,60.00,Monday         
73,338309777.362588
103,39455915.8435987
473,59822356.0541363
731,154223585.250672
1786,338309777.362588
2,2, 1, 2, 0,21, 0.00,60.00,Monday         
73,330217873.541939
103,26303943.8957325
473,59822356.0541363
731,157485879.702711
1786,330217873.541939
2,2, 1, 2, 0,22, 0.00,60.00,Monday         
73,329972625.833754
103,26303943.8957325
473,55180531.8783121
731,160243881.725353
1786,329972625.833754
2,2, 1, 2, 0,23, 0.00,60.00,Monday         
73,80271371.636263
103,13151971.9478662
473,55180531.8783121
731,6791184.
1786,80271371.636263
2,2, 1, 2, 0,24, 0.00,60.00,Monday         
73,73691760.4017255
103,6575985.97393312
473,55180531.8783121
731,6791184.
1786,73691760.4017255
2,3, 1, 3, 0, 1, 0.00,60.00,Tuesday        
73,58551584.4007083
103,4802369.72793237
473,44533202.0018108
731,6791184.
1786,58551584.4007083
2,3, 1, 3, 0, 2, 0.00,60.00,Tuesday        
73,57609860.1137362
103,3861201.79133858
473,44533202.0018108
731,6791184.
1786,57609860.1137362
2,3, 1, 3, 0, 3, 0.00,60.00,Tuesday        
73,57609860.1137362
103,3861201.79133858
473,44533202.0018108
731,6791184.
1786,57609860.1137362
2,3, 1, 3, 0, 4, 0.00,60.00,Tuesday        
73,57609860.1137362
103,3861201.79133858
473,44533202.0018108
731,6791184.
1786,57609860.1137362
2,3, 1, 3, 0, 5, 0.00,60.00,Tuesday        
73,57609860.1137362
103,3861201.79133858
473,44533202.0018108
731,6791184.
1786,57609860.1137362
2,3, 1, 3, 0, 6, 0.00,60.00,Tuesday        
73,133151968.696704
103,3861201.79133858
473,44533202.0018108
731,6791184.
1786,133151968.696704
2,3, 1, 3, 0, 7, 0.00,60.00,Tuesday        
73,379154930.092192
103,10829279.4087343
473,55180531.8783121
731,6791184.
1786,379154930.092192
2,3, 1, 3, 0, 8, 0.00,60.00,Tuesday        
73,506946387.796804
103,39198825.9756468
473,95796493.4167736
731,201987105.688121
1786,506946387.796804
2,3, 1, 3, 0, 9, 0.00,60.00,Tuesday        
73,509644033.203506
103,103864009.74261
473,204227663.759169
731,207207019.734337
1786,509644033.203506
2,3, 1, 3, 0,10, 0.00,60.00,Tuesday        
73,430259113.472291
103,94231270.5948367
473,174055806.616312
731,211440550.59878
1786,430259113.472292
2,3, 1, 3, 0,11, 0.00,60.00,Tuesday        
73,399957980.025294
103,93181588.3729271
473,167093070.352576
731,217576190.663068
1786,399957980.025294
2,3, 1, 3, 0,12, 0.00,60.00,Tuesday        
73,384700937.902001
103,93124323.8539151
473,174055806.616312
731,222871894.32085
1786,384700937.902001
2,3, 1, 3, 0,13, 0.00,60.00,Tuesday        
73,417928701.104785
103,93124323.8539151
473,177667514.306075
731,226527454.946031
1786,417928701.104785
2,3, 1, 3, 0,14, 0.00,60.00,Tuesday        
73,383409013.635393
103,93124323.8539151
473,179858086.836092
731,226685312.973866
1786,383409013.635393
2,3, 1, 3, 0,15, 0.00,60.00,Tuesday        
73,360536659.724087
103,93971752.6275298
473,167093070.352576
731,225863627.913964
1786,360536659.724087
2,3, 1, 3, 0,16, 0.00,60.00,Tuesday        
73,378147784.46206
103,101188905.79527
473,167093070.352576
731,227547417.077723
1786,378147784.46206
2,3, 1, 3, 0,17, 0.00,60.00,Tuesday        
73,407098992.601339
103,113459662.402154
473,177537174.74818
731,237353588.842796
1786,407098992.601339
2,3, 1, 3, 0,18, 0.00,60.00,Tuesday        
73,405568050.324754
103,65759859.7393312
473,140923939.573165
731,233702335.654437
1786,405568050.324754
2,3, 1, 3, 0,19, 0.00,60.00,Tuesday        
73,337009835.04022
103,39455915.8435987
473,69106004.4057846
731,231886611.404454
1786,337009835.04022
2,3, 1, 3, 0,20, 0.00,60.00,Tuesday        
73,306829053.454835
103,39455915.8435987
473,59822356.0541363
731,237873357.405994
1786,306829053.454835
2,3, 1, 3, 0,21, 0.00,60.00,Tuesday        
73,298472293.791649
103,26303943.8957325
473,59822356.0541363
731,241218565.919443
1786,298472293.791649
2,3, 1, 3, 0,22, 0.00,60.00,Tuesday        
73,299968727.112197
103,26303943.8957325
473,55180531.8783121
731,246335041.721901
1786,299968727.112197
2,3, 1, 3, 0,23, 0.00,60.00,Tuesday        
73,80271371.636263
103,13151971.9478662
473,55180531.8783121
731,6791184.
1786,80271371.636263
2,3, 1, 3, 0,24, 0.00,60.00,Tuesday        
73,73691760.4017255
103,6575985.97393312
473,55180531.8783121
731,6791184.
1786,73691760.4017255
2,4, 1, 4, 0, 1, 0.00,60.00,Wednesday      
73,58551584.4007083
103,4802369.72793237
473,44533202.0018108
731,6791184.
1786,58551584.4007083
2,4, 1, 4, 0, 2, 0.00,60.00,Wednesday      
73,57609860.1137362
103,3861201.79133858
473,44533202.0018108
731,6791184.
1786,57609860.1137362
2,4, 1, 4, 0, 3, 0.00,60.00,Wednesday      
73,57609860.1137362
103,3861201.79133858
473,44533202.0018108
731,6791184.
1786,57609860.1137362
2,4, 1, 4, 0, 4, 0.00,60.00,Wednesday      
73,57609860.1137362
103,3861201.79133858
473,44533202.0018108
731,6791184.
1786,57609860.1137362
2,4, 1, 4, 0, 5, 0.00,60.00,Wednesday      
73,57609860.1137362
103,3861201.79133858
473,44533202.0018108
731,6791184.
1786,57609860.1137362
2,4, 1, 4, 0, 6, 0.00,60.00,Wednesday      
73,155109432.330775
103,3861201.79133858
473,44533202.0018108
731,7844963.02660156
1786,155109432.330775
2,4, 1, 4, 0, 7, 0.00,60.00,Wednesday      
73,384839592.756788
103,10829279.4087343
473,55180531.8783121
731,6791184.
1786,384839592.756788
2,4, 1, 4, 0, 8, 0.00,60.00,Wednesday      
73,509670585.320869
103,38455218.1504129
473,95796493.4167736
731,314788234.888237
1786,509670585.320869
2,4, 1, 4, 0, 9, 0.00,60.00,Wednesday      
73,504407991.647554
103,98891159.150674
473,204227663.759169
731,309732051.838966
1786,504407991.647554
2,4, 1, 4, 0,10, 0.00,60.00,Wednesday      
73,392260077.355868
103,94059477.0378008
473,174055806.616312
731,273605179.515751
1786,392260077.355868
2,4, 1, 4, 0,11, 0.00,60.00,Wednesday      
73,341044306.127672
103,93124323.8539151
473,167093070.352576
731,240068932.105967
1786,341044306.127672
2,4, 1, 4, 0,12, 0.00,60.00,Wednesday      
73,339653155.755252
103,93124323.8539151
473,174055806.616312
731,230903757.363639
1786,339653155.755252
2,4, 1, 4, 0,13, 0.00,60.00,Wednesday      
73,385797192.271561
103,93124323.8539151
473,177667514.306075
731,230439642.435516
1786,385797192.271561
2,4, 1, 4, 0,14, 0.00,60.00,Wednesday      
73,337666667.087
103,93124323.8539151
473,179858086.836092
731,221338336.836814
1786,337666667.087
2,4, 1, 4, 0,15, 0.00,60.00,Wednesday      
73,320123513.574979
103,93576670.5002284
473,167093070.352576
731,208969467.593978
1786,320123513.574979
2,4, 1, 4, 0,16, 0.00,60.00,Wednesday      
73,335965995.041724
103,95886622.4808468
473,167093070.352576
731,215214026.633655
1786,335965995.041724
2,4, 1, 4, 0,17, 0.00,60.00,Wednesday      
73,382861539.661125
103,112407866.455547
473,177537174.74818
731,224109602.620245
1786,382861539.661125
2,4, 1, 4, 0,18, 0.00,60.00,Wednesday      
73,381671090.701988
103,65759859.7393312
473,140923939.573165
731,223068286.215558
1786,381671090.701988
2,4, 1, 4, 0,19, 0.00,60.00,Wednesday      
73,303873390.645435
103,39455915.8435987
473,69106004.4057846
731,229083147.833198
1786,303873390.645435
2,4, 1, 4, 0,20, 0.00,60.00,Wednesday      
73,280364936.328954
103,39455915.8435987
473,59822356.0541363
731,224662937.62851
1786,280364936.328955
2,4, 1, 4, 0,21, 0.00,60.00,Wednesday      
73,277452783.670377
103,26303943.8957325
473,59822356.0541363
731,230266999.292583
1786,277452783.670377
2,4, 1, 4, 0,22, 0.00,60.00,Wednesday      
73,276056838.944636
103,26303943.8957325
473,55180531.8783121
731,226673496.191747
1786,276056838.944636
2,4, 1, 4, 0,23, 0.00,60.00,Wednesday      
73,80271371.636263
103,13151971.9478662
473,55180531.8783121
731,6791184.
1786,80271371.636263
2,4, 1, 4, 0,24, 0.00,60.00,Wednesday      
73,73691760.4017255
103,6575985.97393312
473,55180531.8783121
731,6791184.
1786,73691760.4017255
2,5, 1, 5, 0, 1, 0.00,60.00,Thursday       
73,58551584.4007083
103,4802369.72793237
473,44533202.0018108
731,6791184.
1786,58551584.4007083
2,5, 1, 5, 0, 2, 0.00,60.00,Thursday       
73,57609860.1137362
103,3861201.79133858
473,44533202.0018108
731,6791184.
1786,57609860.1137362
2,5, 1, 5, 0, 3, 0.00,60.00,Thursday       
73,57609860.1137362
103,3861201.79133858
473,44533202.0018108
731,6791184.
1786,57609860.1137362
2,5, 1, 5, 0, 4, 0.00,60.00,Thursday       
73,57609860.1137362
103,3861201.79133858
473,44533202.0018108
731,6791184.
1786,57609860.1137362
2,5, 1, 5, 0, 5, 0.00,60.00,Thursday       
73,57609860.1137362
103,3861201.79133858
473,44533202.0018108
731,6791184.
1786,57609860.1137362
2,5, 1, 5, 0, 6, 0.00,60.00,Thursday       
73,136482299.178716
103,3861201.79133858
473,44533202.0018108
731,6961644.96674579
1786,136482299.178716
2,5, 1, 5, 0, 7, 0.00,60.00,Thursday       
73,338302060.350561
103,10829279.4087343
473,55180531.8783121
731,6791184.
1786,338302060.350561
2,5, 1, 5, 0, 8, 0.00,60.00,Thursday       
73,466889629.188329
103,38805825.7147906
473,95796493.4167736
731,230145187.921223
1786,466889629.18833
2,5, 1, 5, 0, 9, 0.00,60.00,Thursday       
73,483264396.0414
103,99675580.6460203
473,204227663.759169
731,227419762.88165
1786,483264396.041401
2,5, 1, 5, 0,10, 0.00,60.00,Thursday       
73,385897424.615255
103,93670178.6845053
473,174055806.616312
731,214419144.527925
1786,385897424.615255
2,5, 1, 5, 0,11, 0.00,60.00,Thursday       
73,334621464.221902
103,93124323.8539151
473,167093070.352576
731,200997456.370709
1786,334621464.221902
2,5, 1, 5, 0,12, 0.00,60.00,Thursday       
73,331588593.533747
103,93124323.8539151
473,174055806.616312
731,189283367.262258
1786,331588593.533747
2,5, 1, 5, 0,13, 0.00,60.00,Thursday       
73,377722864.933519
103,93124323.8539151
473,177667514.306075
731,173767885.799636
1786,377722864.933519
2,5, 1, 5, 0,14, 0.00,60.00,Thursday       
73,326830306.632543
103,93124323.8539151
473,179858086.836092
731,175811034.179179
1786,326830306.632543
2,5, 1, 5, 0,15, 0.00,60.00,Thursday       
73,307005567.953757
103,93181588.3729271
473,167093070.352576
731,168400083.24144
1786,307005567.953757
2,5, 1, 5, 0,16, 0.00,60.00,Thursday       
73,311375977.377091
103,94454582.9454744
473,167093070.352576
731,177561715.804815
1786,311375977.377091
2,5, 1, 5, 0,17, 0.00,60.00,Thursday       
73,350544076.328314
103,107040087.965442
473,177537174.74818
731,196050246.987148
1786,350544076.328314
2,5, 1, 5, 0,18, 0.00,60.00,Thursday       
73,357700188.971193
103,65759859.7393312
473,140923939.573165
731,204318507.431116
1786,357700188.971193
2,5, 1, 5, 0,19, 0.00,60.00,Thursday       
73,280766553.822672
103,39455915.8435987
473,69106004.4057846
731,218421855.194438
1786,280766553.822672
2,5, 1, 5, 0,20, 0.00,60.00,Thursday       
73,257496465.847024
103,39455915.8435987
473,59822356.0541363
731,230979259.791117
1786,257496465.847024
2,5, 1, 5, 0,21, 0.00,60.00,Thursday       
73,252330979.09878
103,26303943.8957325
473,59822356.0541363
731,226788946.545532
1786,252330979.09878
2,5, 1, 5, 0,22, 0.00,60.00,Thursday       
73,251396553.635919
103,26303943.8957325
473,55180531.8783121
731,231146671.365531
1786,251396553.635919
2,5, 1, 5, 0,23, 0.00,60.00,Thursday       
73,80271371.636263
103,13151971.9478662
473,55180531.8783121
731,6791184.
1786,80271371.636263
2,5, 1, 5, 0,24, 0.00,60.00,Thursday       
73,73691760.4017255
103,6575985.97393312
473,55180531.8783121
731,6791184.
1786,73691760.4017255
2,6, 1, 6, 0, 1, 0.00,60.00,Friday         
73,58551584.4007083
103,4802369.72793237
473,44533202.0018108
731,6791184.
1786,58551584.4007083
2,6, 1, 6, 0, 2, 0.00,60.00,Friday         
73,57609860.1137362
103,3861201.79133858
473,44533202.0018108
731,6791184.
1786,57609860.1137362
2,6, 1, 6, 0, 3, 0.00,60.00,Friday         
73,57609860.1137362
103,3861201.79133858
473,44533202.0018108
731,6791184.
1786,57609860.1137362
2,6, 1, 6, 0, 4, 0.00,60.00,Friday         
73,57609860.1137362
103,3861201.79133858
473,44533202.0018108
731,6791184.
1786,57609860.1137362
2,6, 1, 6, 0, 5, 0.00,60.00,Friday         
73,57609860.1137362
103,3861201.79133858
473,44533202.0018108
731,6791184.
1786,57609860.1137362
2,6, 1, 6, 0, 6, 0.00,60.00,Friday         
73,116415756.747862
103,3861201.79133858
473,44533202.0018108
731,7050465.55613781
1786,116415756.747862
2,6, 1, 6, 0, 7, 0.00,60.00,Friday         
73,337803225.074677
103,10829279.4087343
473,55180531.8783121
731,6791184.
1786,337803225.074677
2,6, 1, 6, 0, 8, 0.00,60.00,Friday         
73,463382586.343691
103,38455218.1504129
473,95796493.4167736
731,308009900.056998
1786,463382586.343691
2,6, 1, 6, 0, 9, 0.00,60.00,Friday         
73,473011163.408726
103,98344939.0628761
473,204227663.759169
731,292519583.538018
1786,473011163.408726
2,6, 1, 6, 0,10, 0.00,60.00,Friday         
73,359350967.209022
103,94023226.2384242
473,174055806.616312
731,247075475.889134
1786,359350967.209022
2,6, 1, 6, 0,11, 0.00,60.00,Friday         
73,318856838.777283
103,93124323.8539151
473,167093070.352576
731,217043798.305509
1786,318856838.777283
2,6, 1, 6, 0,12, 0.00,60.00,Friday         
73,319378940.730658
103,93124323.8539151
473,174055806.616312
731,204288558.85314
1786,319378940.730658
2,6, 1, 6, 0,13, 0.00,60.00,Friday         
73,366519447.046154
103,93124323.8539151
473,177667514.306075
731,189949437.633806
1786,366519447.046154
2,6, 1, 6, 0,14, 0.00,60.00,Friday         
73,316777330.050793
103,93124323.8539151
473,179858086.836092
731,178016800.032681
1786,316777330.050793
2,6, 1, 6, 0,15, 0.00,60.00,Friday         
73,295021457.274034
103,93181588.3729271
473,167093070.352576
731,159137343.060203
1786,295021457.274034
2,6, 1, 6, 0,16, 0.00,60.00,Friday         
73,297611963.963366
103,96350181.5972909
473,167093070.352576
731,152746726.071662
1786,297611963.963366
2,6, 1, 6, 0,17, 0.00,60.00,Friday         
73,342728030.217336
103,114441090.087119
473,177537174.74818
731,165313318.758879
1786,342728030.217336
2,6, 1, 6, 0,18, 0.00,60.00,Friday         
73,338803068.805703
103,65759859.7393312
473,140923939.573165
731,173080287.03976
1786,338803068.805703
2,6, 1, 6, 0,19, 0.00,60.00,Friday         
73,255518140.666731
103,39455915.8435987
473,69106004.4057846
731,181890133.039122
1786,255518140.666731
2,6, 1, 6, 0,20, 0.00,60.00,Friday         
73,234782484.178147
103,39455915.8435987
473,59822356.0541363
731,170946571.800396
1786,234782484.178147
2,6, 1, 6, 0,21, 0.00,60.00,Friday         
73,225657154.019376
103,26303943.8957325
473,59822356.0541363
731,160784850.006041
1786,225657154.019376
2,6, 1, 6, 0,22, 0.00,60.00,Friday         
73,223593854.657886
103,26303943.8957325
473,55180531.8783121
731,149016889.669468
1786,223593854.657886
2,6, 1, 6, 0,23, 0.00,60.00,Friday         
73,80271371.636263
103,13151971.9478662
473,55180531.8783121
731,6791184.
1786,80271371.636263
2,6, 1, 6, 0,24, 0.00,60.00,Friday         
73,73691760.4017255
103,6575985.97393312
473,55180531.8783121
731,6791184.
1786,73691760.4017255
2,7, 1, 7, 0, 1, 0.00,60.00,Saturday       
73,47300809.6529797
103,4802369.72793237
473,33399901.5013581
731,6791184.
1786,47300809.6529797
2,7, 1, 7, 0, 2, 0.00,60.00,Saturday       
73,46359235.7095559
103,3861201.79133858
473,33399901.5013581
731,6791184.
1786,46359235.7095559
2,7, 1, 7, 0, 3, 0.00,60.00,Saturday       
73,46359235.7095559
103,3861201.79133858
473,33399901.5013581
731,6791184.
1786,46359235.7095559
2,7, 1, 7, 0, 4, 0.00,60.00,Saturday       
73,46359235.7095559
103,3861201.79133858
473,33399901.5013581
731,6791184.
1786,46359235.7095559
2,7, 1, 7, 0, 5, 0.00,60.00,Saturday       
73,46359235.7095559
103,3861201.79133858
473,33399901.5013581
731,6791184.
1786,46359235.7095559
2,7, 1, 7, 0, 6, 0.00,60.00,Saturday       
73,81533935.7444417
103,3861201.79133858
473,33399901.5013581
731,6791184.
1786,81533935.7444417
2,7, 1, 7, 0, 7, 0.00,60.00,Saturday       
73,263082371.231182
103,10829279.4087343
473,55180531.8783121
731,6791184.
1786,263082371.231182
2,7, 1, 7, 0, 8, 0.00,60.00,Saturday       
73,327606388.826441
103,13151971.9478662
473,73747828.5816088
731,108321240.418812
1786,327606388.826441
2,7, 1, 7, 0, 9, 0.00,60.00,Saturday       
73,298065246.384598
103,35295595.4946206
473,85222049.4632748
731,103467848.532054
1786,298065246.384599
2,7, 1, 7, 0,10, 0.00,60.00,Saturday       
73,273402515.10384
103,31415502.5581927
473,93345241.7709671
731,115236490.382041
1786,273402515.10384
2,7, 1, 7, 0,11, 0.00,60.00,Saturday       
73,225425247.704781